********************************************************************************
*                       GENERAL UTILITY LATTICE PROGRAM                        *
*                                 Julian Gale                                  *
*                       Curtin Institute for Computation                       *
*                    School of Molecular and Life Sciences                     *
*                    Curtin University, Western Australia                      *
********************************************************************************
* Version = 5.2.0 * Last modified =  10th September 2020                       *
********************************************************************************
*  optimise     - perform optimisation run                                     *
*  conp         - constant pressure calculation                                *
*  property     - calculate properties for final geometry                      *
*  defect       - perform defect calculation after bulk run                    *
*  compare      - compare initial and final structures                         *
********************************************************************************

  Job Started  at 13:12.57 21st October    2020                               

  Number of CPUs =     1


  Total number of configurations input =      1

********************************************************************************
*  Input for Configuration =   1                                               *
********************************************************************************

  Formula = ClOLi3                                                      

  Number of irreducible atoms/shells =       5


  Total number atoms/shells =       7

  Dimensionality = 3               :  Bulk   


  Symmetry :

  Crystal family                   :  Cubic       
  Crystal class  (Groth - 1921)    :  Cubic Hexakisoctahedral              

  Space group (centrosymmetric)    :  P M 3 M         

  Patterson group                  :  P m -3 m 

  Cartesian lattice vectors (Angstroms) :

        3.918873    0.000000    0.000000
        0.000000    3.918873    0.000000
        0.000000    0.000000    3.918873

  Cell parameters (Angstroms/Degrees):

  a =       3.9189    alpha =  90.0000
  b =       3.9189    beta  =  90.0000
  c =       3.9189    gamma =  90.0000

  Initial cell volume =          60.184349 Angs**3

  Temperature of configuration =   0.00     K 

  Pressure of configuration =         0.000 GPa 

  Fractional coordinates of asymmetric unit :

--------------------------------------------------------------------------------
   No.  Atomic       x           y          z         Charge      Occupancy
        Label      (Frac)      (Frac)     (Frac)        (e)         (Frac)  
--------------------------------------------------------------------------------
      1 Cl    c    0.000000    0.000000    0.000000     1.48500    1.000000    
      2 O     c    0.500000    0.500000    0.500000     0.18300    1.000000    
      3 Li    c    0.500000    0.500000    0.000000     1.00000    1.000000    
      4 Cl    s    0.000000    0.000000    0.000000    -2.48500    1.000000    
      5 O     s    0.500000    0.500000    0.500000    -2.18300    1.000000    
--------------------------------------------------------------------------------


  Constraints : 

--------------------------------------------------------------------------------
  Constraint no.      Unconstrained     Constrained    Coefficient    Offset
                         Variable         Variable
--------------------------------------------------------------------------------
           1              Strain 1        Strain 2       1.00000      0.0000
           2              Strain 1        Strain 3       1.00000      0.0000
--------------------------------------------------------------------------------


********************************************************************************
*  General input information                                                   *
********************************************************************************

  Species output for all configurations : 

--------------------------------------------------------------------------------
  Species    Type    Atomic    Atomic    Charge       Radii (Angs)     Library
                     Number     Mass       (e)     Cova   Ionic  VDW   Symbol
--------------------------------------------------------------------------------
    Li       Core        3       6.94   1.000000   0.680  0.000  1.800          
    O        Core        8      16.00   0.183000   0.730  0.000  1.360          
    O        Shell       8       0.00  -2.183000   0.730  0.000  1.360          
    Cl       Core       17      35.45   1.485000   0.990  0.000  1.650          
    Cl       Shell      17       0.00  -2.485000   0.990  0.000  1.650          
--------------------------------------------------------------------------------


  Lattice summation method               =    Ewald          (3-D)
                                         =    Parry          (2-D)
                                         =    Saunders et al (1-D)
  Accuracy factor for lattice sums       =   12.000


  Analytic derivatives to be used

  Time limit = Infinity

  Maximum range for interatomic potentials =    100000.000000 Angstroms

  General interatomic potentials :

--------------------------------------------------------------------------------
Atom  Types   Potential      Parameter       Value         Units   Cutoffs(Ang)
  1     2                                                            Min /  Max 
--------------------------------------------------------------------------------
O    c O    s Spring (c-s)  Spring k 2       593.72000    eV*Ang^-2 0.000  0.800
                            Spring k 4       0.0000000    eV*Ang^-4 
--------------------------------------------------------------------------------
Cl   c Cl   s Spring (c-s)  Spring k 2       29.380000    eV*Ang^-2 0.000  0.800
                            Spring k 4       0.0000000    eV*Ang^-4 
--------------------------------------------------------------------------------
Li   c Li   c Buckingham    Buckingham A     360.53000    eV        0.000 12.000
                            Buckingham rho  0.16100000    Ang       
                            Buckingham C     0.0000000    eV*Ang^6  
--------------------------------------------------------------------------------
Li   c O    s Buckingham    Buckingham A     292.30000    eV        0.000 12.000
                            Buckingham rho  0.34720000    Ang       
                            Buckingham C     0.0000000    eV*Ang^6  
--------------------------------------------------------------------------------
Li   c Cl   s Buckingham    Buckingham A     421.04000    eV        0.000 12.000
                            Buckingham rho  0.33400000    Ang       
                            Buckingham C     0.0000000    eV*Ang^6  
--------------------------------------------------------------------------------
O    s O    s Buckingham    Buckingham A     22764.300    eV        0.000 12.000
                            Buckingham rho  0.14900000    Ang       
                            Buckingham C     13.190000    eV*Ang^6  
--------------------------------------------------------------------------------
O    s Cl   s Buckingham    Buckingham A     8286.9100    eV        0.000 12.000
                            Buckingham rho  0.25900000    Ang       
                            Buckingham C     62.200000    eV*Ang^6  
--------------------------------------------------------------------------------
Cl   s Cl   s Buckingham    Buckingham A     1227.2000    eV        0.000 12.000
                            Buckingham rho  0.32100000    Ang       
                            Buckingham C     14.530000    eV*Ang^6  
--------------------------------------------------------------------------------

********************************************************************************
*  Output for configuration   1                                                *
********************************************************************************


  Components of energy : 

--------------------------------------------------------------------------------
  Interatomic potentials     =           7.26836263 eV    
  Monopole - monopole (real) =         -11.53475722 eV    
  Monopole - monopole (recip)=         -33.94580548 eV    
  Monopole - monopole (total)=         -45.48056271 eV    
--------------------------------------------------------------------------------
  Total lattice energy       =         -38.21220008 eV    
--------------------------------------------------------------------------------
  Total lattice energy       =           -3686.8932 kJ/(mole unit cells)
--------------------------------------------------------------------------------


  Number of variables =        1

  Maximum number of calculations  =          1000
  Maximum Hessian update interval =            10
  Maximum step size               =   1.000000000
  Maximum parameter tolerance     =   0.000010000
  Maximum function  tolerance     =   0.000010000
  Maximum gradient  tolerance     =   0.001000000
  Maximum gradient  component     =   0.010000000

  Symmetry constrained optimisation

  Symmetry used for second derivatives

  Cell parameters to be optimised using strains

  Newton-Raphson optimiser to be used

  BFGS hessian update to be used

  Lower half triangular hessian to be used

  Start of bulk optimisation :

  Cycle:      0 Energy:       -38.212200  Gnorm:      0.095699  CPU:    0.006
  ** Hessian calculated **
  Cycle:      1 Energy:       -38.212222  Gnorm:      0.000105  CPU:    0.007


  **** Optimisation achieved ****


  Final energy =     -38.21222207 eV
  Final Gnorm  =       0.00000016

  Components of energy : 

--------------------------------------------------------------------------------
  Interatomic potentials     =           7.24743141 eV    
  Monopole - monopole (real) =         -11.52945423 eV    
  Monopole - monopole (recip)=         -33.93019924 eV    
  Monopole - monopole (total)=         -45.45965348 eV    
--------------------------------------------------------------------------------
  Total lattice energy       =         -38.21222207 eV    
--------------------------------------------------------------------------------
  Total lattice energy       =           -3686.8953 kJ/(mole unit cells)
--------------------------------------------------------------------------------

  Final asymmetric unit coordinates :

--------------------------------------------------------------------------------
   No.  Atomic        x           y           z         Radius
        Label       (Frac)      (Frac)      (Frac)       (Angs) 
--------------------------------------------------------------------------------
     1  Cl    c     0.000000    0.000000    0.000000    0.000000
     2  O     c     0.500000    0.500000    0.500000    0.000000
     3  Li    c     0.500000    0.500000    0.000000    0.000000
     4  Cl    s     0.000000    0.000000    0.000000    0.000000
     5  O     s     0.500000    0.500000    0.500000    0.000000
--------------------------------------------------------------------------------

  Final Cartesian lattice vectors (Angstroms) :

        3.920675    0.000000    0.000000
        0.000000    3.920675    0.000000
        0.000000    0.000000    3.920675


  Final cell parameters and derivatives :

--------------------------------------------------------------------------------
       a            3.920675 Angstrom     dE/de1(xx)    -0.000000 eV/strain
       b            3.920675 Angstrom     dE/de2(yy)     0.000000 eV/strain
       c            3.920675 Angstrom     dE/de3(zz)     0.000000 eV/strain
       alpha       90.000000 Degrees      dE/de4(yz)     0.000000 eV/strain
       beta        90.000000 Degrees      dE/de5(xz)     0.000000 eV/strain
       gamma       90.000000 Degrees      dE/de6(xy)     0.000000 eV/strain
--------------------------------------------------------------------------------

  Primitive cell volume =            60.267433 Angs**3

  Density of cell =      1.991276 g/cm**3

  Non-primitive cell volume =            60.267433 Angs**3


  Final internal derivatives :

--------------------------------------------------------------------------------
   No.  Atomic          a             b             c           Radius
        Label          (eV)          (eV)          (eV)        (eV/Angs)
--------------------------------------------------------------------------------
      1 Cl    c       0.000000      0.000000      0.000000      0.000000
      2 O     c       0.000000      0.000000      0.000000      0.000000
      3 Li    c       0.000000      0.000000      0.000000      0.000000
      4 Cl    s       0.000000      0.000000      0.000000      0.000000
      5 O     s       0.000000      0.000000      0.000000      0.000000
--------------------------------------------------------------------------------
  Maximum abs         0.000000      0.000000      0.000000      0.000000
--------------------------------------------------------------------------------

  Comparison of initial and final structures : 

--------------------------------------------------------------------------------
  Parameter   Initial value   Final value   Difference    Units      Percent
--------------------------------------------------------------------------------
    Volume        60.184349     60.267433     0.083084    Angs**3      0.14
    a              3.918873      3.920675     0.001802    Angstroms    0.05
    b              3.918873      3.920675     0.001802    Angstroms    0.05
    c              3.918873      3.920675     0.001802    Angstroms    0.05
    alpha         90.000000     90.000000     0.000000    Degrees      0.00
    beta          90.000000     90.000000     0.000000    Degrees      0.00
    gamma         90.000000     90.000000     0.000000    Degrees      0.00
      1 x          0.000000      0.000000     0.000000    Fractional   0.00
      1 y          0.000000      0.000000     0.000000    Fractional   0.00
      1 z          0.000000      0.000000     0.000000    Fractional   0.00
      2 x          0.500000      0.500000     0.000000    Fractional   0.00
      2 y          0.500000      0.500000     0.000000    Fractional   0.00
      2 z          0.500000      0.500000     0.000000    Fractional   0.00
      3 x          0.500000      0.500000     0.000000    Fractional   0.00
      3 y          0.500000      0.500000     0.000000    Fractional   0.00
      3 z          0.000000      0.000000     0.000000    Fractional   0.00
      4 x          0.000000      0.000000     0.000000    Fractional   0.00
      4 y          0.000000      0.000000     0.000000    Fractional   0.00
      4 z          0.000000      0.000000     0.000000    Fractional   0.00
      5 x          0.500000      0.500000     0.000000    Fractional   0.00
      5 y          0.500000      0.500000     0.000000    Fractional   0.00
      5 z          0.500000      0.500000     0.000000    Fractional   0.00
--------------------------------------------------------------------------------


  Born effective charge tensors : 

-------------------------------------------------------------------------------
  Atom             x           y             z
-------------------------------------------------------------------------------
    1 Cl    x      -0.9489     -0.0000     -0.0000
            y      -0.0000     -0.9489     -0.0000
            z      -0.0000     -0.0000     -0.9489
-------------------------------------------------------------------------------
    2 O     x      -2.4688      0.0000      0.0000
            y       0.0000     -2.4688      0.0000
            z       0.0000      0.0000     -2.4688
-------------------------------------------------------------------------------
    3 Li    x       1.3129      0.0000     -0.0000
            y       0.0000      1.3129      0.0000
            z      -0.0000      0.0000      0.7919
-------------------------------------------------------------------------------




  Elastic Constant Matrix: (Units=GPa)

-------------------------------------------------------------------------------
  Indices      1         2         3         4         5         6    
-------------------------------------------------------------------------------
       1     94.3368   44.9178   44.9178    0.0000   -0.0000    0.0000
       2     44.9178   94.3368   44.9178   -0.0000    0.0000   -0.0000
       3     44.9178   44.9178   94.3368    0.0000   -0.0000    0.0000
       4      0.0000   -0.0000    0.0000   44.9178   -0.0000    0.0000
       5     -0.0000    0.0000   -0.0000   -0.0000   44.9178    0.0000
       6      0.0000   -0.0000    0.0000    0.0000    0.0000   44.9178
-------------------------------------------------------------------------------


  Elastic Compliance Matrix: (Units=1/GPa)

-------------------------------------------------------------------------------
  Indices      1         2         3         4         5         6    
-------------------------------------------------------------------------------
       1    0.015300 -0.004935 -0.004935 -0.000000  0.000000 -0.000000
       2   -0.004935  0.015300 -0.004935  0.000000 -0.000000  0.000000
       3   -0.004935 -0.004935  0.015300 -0.000000  0.000000 -0.000000
       4   -0.000000  0.000000 -0.000000  0.022263  0.000000 -0.000000
       5    0.000000 -0.000000  0.000000  0.000000  0.022263 -0.000000
       6   -0.000000  0.000000 -0.000000 -0.000000 -0.000000  0.022263
-------------------------------------------------------------------------------

  Mechanical properties :

-------------------------------------------------------------------------------
  Convention :                    Reuss         Voigt         Hill
-------------------------------------------------------------------------------
  Bulk  Modulus (GPa)     =      61.39080      61.39080      61.39080
  Shear Modulus (GPa)     =      33.84570      36.83448      35.34009
-------------------------------------------------------------------------------
  Velocity S-wave (km/s)  =       4.12274       4.30092       4.21277
  Velocity P-wave (km/s)  =       7.31386       7.44942       7.38195
-------------------------------------------------------------------------------
  Compressibility (1/GPa) =    0.01628909
-------------------------------------------------------------------------------
  Stress axis :                     x             y             z
-------------------------------------------------------------------------------
  Youngs Moduli (GPa)     =      65.35947      65.35947      65.35947
-------------------------------------------------------------------------------
  Poissons Ratio (x)      =                     0.32256       0.32256
  Poissons Ratio (y)      =       0.32256                     0.32256
  Poissons Ratio (z)      =       0.32256       0.32256
-------------------------------------------------------------------------------


  Piezoelectric Strain Matrix: (Units=C/m**2)

-------------------------------------------------------------------------------
  Indices      1         2         3         4         5         6    
-------------------------------------------------------------------------------
       x    -0.00000   0.00000   0.00000  -0.00000  -0.00000   0.00000
       y    -0.00000   0.00000   0.00000  -0.00000  -0.00000  -0.00000
       z     0.00000   0.00000   0.00000   0.00000  -0.00000  -0.00000
-------------------------------------------------------------------------------


  Piezoelectric Stress Matrix: (Units=10**-11 C/N)

-------------------------------------------------------------------------------
  Indices      1         2         3         4         5         6    
-------------------------------------------------------------------------------
       x    -0.00000   0.00000   0.00000  -0.00000  -0.00000   0.00000
       y    -0.00000   0.00000   0.00000  -0.00000  -0.00000  -0.00000
       z    -0.00000  -0.00000   0.00000   0.00000  -0.00000  -0.00000
-------------------------------------------------------------------------------


  Static dielectric constant tensor : 

-------------------------------------------------------------------------------
              x         y         z
-------------------------------------------------------------------------------
       x    12.11703   0.00000  -0.00000
       y     0.00000  12.11703  -0.00000
       z    -0.00000  -0.00000  12.11703
--------------------------------------------------------------------------------

  High frequency dielectric constant tensor : 

-------------------------------------------------------------------------------
              x         y         z
-------------------------------------------------------------------------------
       x     1.74104   0.00000   0.00000
       y     0.00000   1.74104   0.00000
       z     0.00000   0.00000   1.74104
-------------------------------------------------------------------------------

  Static refractive indices : 

-------------------------------------------------------------------------------
    1 =    3.48095      2 =    3.48095      3 =    3.48095
-------------------------------------------------------------------------------

  High frequency refractive indices : 

-------------------------------------------------------------------------------
    1 =    1.31948      2 =    1.31948      3 =    1.31948
-------------------------------------------------------------------------------


  Time to end of optimisation =       0.0111 seconds

********************************************************************************
*  Defect calculation for configuration   1 :                                  *
********************************************************************************

  Total number of defects =      3

  Total charge on defect  =   1.00

  Defect centre is at   1.5675   0.0000   0.0000  Angs

  Region 1 radius =  20.0000      Number of ions =   3882

  Number of symmetry inequivalent region 1 ions  =    625

  Region 2 radius =  24.0000      Number of ions =   2876

  Number of symmetry inequivalent region 2a ions =    419

  Region 2a mode = 4 : screened electrostatics due to region 1 
                       neglect correction to region 1 forces from 2a
                       region 2a displacements based on defects only

  Region 2a ions will only interact with defects in region 1

  Vacancies:

--------------------------------------------------------------------------------
    Specification type     Symbol/Number         x          y          z
--------------------------------------------------------------------------------
    Cartesian                                0.000000   0.000000   0.000000
    Cartesian                                3.918873   0.000000   0.000000
--------------------------------------------------------------------------------

  Interstitials:

--------------------------------------------------------------------------------
    Specification type     Symbol/Number         x          y          z
--------------------------------------------------------------------------------
    Atom/Cartesian          Cl               1.567549   0.000000   0.000000
--------------------------------------------------------------------------------


  Symmetry reduced region 1 (Relative to defect centre) :

--------------------------------------------------------------------------------
   No.   Atomic       x            y             z       Radius  Multiplicity   
         Label      (Angs)       (Angs)        (Angs)    (Angs)     
--------------------------------------------------------------------------------
     1  Cl    c      0.0000       0.0000       0.0000    0.0000     1    Defect
     2  Li    c      0.3928 *    -1.9603 *     0.0000    0.0000     4          
     3  O     c      0.3928 *    -1.9603 *    -1.9603    0.0000     4          
     4  Li    c     -1.5675 *    -1.9603 *    -1.9603    0.0000     4          
     5  Li    c      2.3531 *    -1.9603 *    -1.9603    0.0000     4          
     6  Li    c     -3.5279 *    -1.9603 *     0.0000    0.0000     4          
     7  Cl    c     -1.5675 *     0.0000       3.9207 *  0.0000     4          
     8  Li    c      0.3928 *    -1.9603 *     3.9207 *  0.0000     8          
     9  O     c     -3.5279 *    -1.9603 *    -1.9603    0.0000     4          
    10  Cl    c      2.3531 *     0.0000       3.9207 *  0.0000     4          
    11  Li    c      4.3135 *    -1.9603 *     0.0000    0.0000     4          
    12  O     c      4.3135 *    -1.9603 *    -1.9603    0.0000     4          
    13  Cl    c     -5.4882 *     0.0000       0.0000    0.0000     1          
    14  Li    c     -3.5279 *    -1.9603 *     3.9207 *  0.0000     8          
    15  Cl    c     -1.5675 *     3.9207 *     3.9207    0.0000     4          
    16  Li    c      0.3928 *     5.8810 *     0.0000    0.0000     4          
    17  Cl    c      2.3531 *     3.9207 *     3.9207    0.0000     4          
    18  Li    c     -5.4882 *    -1.9603 *    -1.9603    0.0000     4          
    19  Li    c      4.3135 *    -1.9603 *     3.9207 *  0.0000     8          
    20  O     c      0.3928 *     5.8810 *    -1.9603 *  0.0000     8          
    21  Cl    c      6.2738 *     0.0000       0.0000    0.0000     1          
    22  Li    c     -1.5675 *    -1.9603 *     5.8810 *  0.0000     8          
    23  Li    c      2.3531 *    -1.9603 *     5.8810 *  0.0000     8          
    24  Cl    c     -5.4882 *     0.0000       3.9207 *  0.0000     4          
    25  Li    c     -3.5279 *     5.8810 *     0.0000    0.0000     4          
    26  Li    c      6.2738 *    -1.9603 *    -1.9603    0.0000     4          
    27  Li    c      0.3928 *     5.8810 *     3.9207 *  0.0000     8          
    28  O     c     -3.5279 *    -1.9603 *     5.8810 *  0.0000     8          
    29  Li    c      4.3135 *     5.8810 *     0.0000    0.0000     4          
    30  Cl    c      6.2738 *     0.0000       3.9207 *  0.0000     4          
    31  O     c      4.3135 *    -1.9603 *     5.8810 *  0.0000     8          
    32  Li    c     -7.4486 *    -1.9603 *     0.0000    0.0000     4          
    33  Cl    c     -5.4882 *     3.9207 *     3.9207    0.0000     4          
    34  Li    c     -3.5279 *     5.8810 *     3.9207 *  0.0000     8          
    35  O     c     -7.4486 *    -1.9603 *    -1.9603    0.0000     4          
    36  Cl    c     -1.5675 *     0.0000       7.8414 *  0.0000     4          
    37  Li    c      0.3928 *    -1.9603 *     7.8414 *  0.0000     8          
    38  Cl    c      2.3531 *     0.0000       7.8414 *  0.0000     4          
    39  Li    c     -5.4882 *    -1.9603 *     5.8810 *  0.0000     8          
    40  Li    c      4.3135 *     5.8810 *     3.9207 *  0.0000     8          
    41  O     c      0.3928 *     5.8810 *     5.8810    0.0000     4          
    42  Cl    c      6.2738 *     3.9207 *     3.9207    0.0000     4          
    43  Li    c     -1.5675 *     5.8810 *     5.8810    0.0000     4          
    44  Li    c      8.2341 *    -1.9603 *     0.0000    0.0000     4          
    45  Li    c     -7.4486 *    -1.9603 *     3.9207 *  0.0000     8          
    46  Li    c      2.3531 *     5.8810 *     5.8810    0.0000     4          
    47  O     c      8.2341 *    -1.9603 *    -1.9603    0.0000     4          
    48  Li    c     -3.5279 *    -1.9603 *     7.8414 *  0.0000     8          
    49  Li    c      6.2738 *    -1.9603 *     5.8810 *  0.0000     8          
    50  Cl    c     -1.5675 *     3.9207 *     7.8414 *  0.0000     8          
    51  O     c     -3.5279 *     5.8810 *     5.8810    0.0000     4          
    52  Cl    c      2.3531 *     3.9207 *     7.8414 *  0.0000     8          
    53  Li    c      4.3135 *    -1.9603 *     7.8414 *  0.0000     8          
    54  Li    c      8.2341 *    -1.9603 *     3.9207 *  0.0000     8          
    55  O     c      4.3135 *     5.8810 *     5.8810    0.0000     4          
    56  Cl    c     -9.4089 *     0.0000       0.0000    0.0000     1          
    57  Li    c     -7.4486 *     5.8810 *     0.0000    0.0000     4          
    58  Cl    c     -5.4882 *     0.0000       7.8414 *  0.0000     4          
    59  O     c     -7.4486 *    -1.9603 *     5.8810 *  0.0000     8          
    60  Li    c     -9.4089 *    -1.9603 *    -1.9603    0.0000     4          
    61  Li    c      0.3928 *     5.8810 *     7.8414 *  0.0000     8          
    62  Li    c      0.3928 *     9.8017 *     0.0000    0.0000     4          
    63  Li    c     -5.4882 *     5.8810 *     5.8810    0.0000     4          
    64  O     c      0.3928 *    -1.9603 *     9.8017 *  0.0000     8          
    65  Cl    c      6.2738 *     0.0000       7.8414 *  0.0000     4          
    66  Li    c     -1.5675 *    -1.9603 *     9.8017 *  0.0000     8          
    67  Li    c      8.2341 *     5.8810 *     0.0000    0.0000     4          
    68  Cl    c     -9.4089 *     0.0000       3.9207 *  0.0000     4          
    69  Cl    c     10.1945 *     0.0000       0.0000    0.0000     1          
    70  Li    c     -7.4486 *     3.9207 *     5.8810 *  0.0000     8          
    71  Li    c      2.3531 *    -1.9603 *     9.8017 *  0.0000     8          
    72  O     c      8.2341 *    -1.9603 *     5.8810 *  0.0000     8          
    73  Cl    c     -5.4882 *     3.9207 *     7.8414 *  0.0000     8          
    74  Li    c     -3.5279 *     7.8414 *     5.8810 *  0.0000     8          
    75  Li    c     -3.5279 *     9.8017 *     0.0000    0.0000     4          
    76  Li    c      6.2738 *     5.8810 *     5.8810    0.0000     4          
    77  Li    c      0.3928 *     9.8017 *     3.9207 *  0.0000     8          
    78  Li    c     10.1945 *    -1.9603 *    -1.9603    0.0000     4          
    79  O     c     -3.5279 *    -1.9603 *     9.8017 *  0.0000     8          
    80  Li    c      4.3135 *     7.8414 *     5.8810 *  0.0000     8          
    81  Li    c      4.3135 *     9.8017 *     0.0000    0.0000     4          
    82  Cl    c      6.2738 *     3.9207 *     7.8414 *  0.0000     8          
    83  Li    c      8.2341 *     5.8810 *     3.9207 *  0.0000     8          
    84  O     c      4.3135 *    -1.9603 *     9.8017 *  0.0000     8          
    85  Cl    c     -9.4089 *     3.9207 *     3.9207    0.0000     4          
    86  Cl    c     10.1945 *     0.0000       3.9207 *  0.0000     4          
    87  Li    c     -7.4486 *    -1.9603 *     7.8414 *  0.0000     8          
    88  Li    c     -3.5279 *     9.8017 *     3.9207 *  0.0000     8          
    89  O     c     -7.4486 *     5.8810 *     5.8810    0.0000     4          
    90  Cl    c     -1.5675 *     7.8414 *     7.8414    0.0000     4          
    91  Li    c     -9.4089 *    -1.9603 *     5.8810 *  0.0000     8          
    92  Cl    c      2.3531 *     7.8414 *     7.8414    0.0000     4          
    93  Li    c     -5.4882 *    -1.9603 *     9.8017 *  0.0000     8          
    94  Li    c      4.3135 *     9.8017 *     3.9207 *  0.0000     8          
    95  O     c      0.3928 *     5.8810 *     9.8017 *  0.0000     8          
    96  Li    c    -11.3692 *    -1.9603 *     0.0000    0.0000     4          
    97  Li    c     -1.5675 *     9.8017 *     5.8810 *  0.0000     8          
    98  Li    c      8.2341 *     7.8414 *    -1.9603 *  0.0000     8          
    99  Cl    c     10.1945 *     3.9207 *     3.9207    0.0000     4          
   100  Li    c      2.3531 *     5.8810 *     9.8017 *  0.0000     8          
   101  O     c    -11.3692 *    -1.9603 *    -1.9603    0.0000     4          
   102  O     c      8.2341 *     5.8810 *     5.8810    0.0000     4          
   103  Li    c      6.2738 *    -1.9603 *     9.8017 *  0.0000     8          
   104  Cl    c     -1.5675 *     0.0000      11.7620 *  0.0000     4          
   105  Li    c      0.3928 *    -1.9603 *    11.7620 *  0.0000     8          
   106  Li    c     10.1945 *    -1.9603 *     5.8810 *  0.0000     8          
   107  O     c     -3.5279 *     5.8810 *     9.8017 *  0.0000     8          
   108  Cl    c      2.3531 *     0.0000      11.7620 *  0.0000     4          
   109  Li    c    -11.3692 *    -1.9603 *     3.9207 *  0.0000     8          
   110  O     c      4.3135 *     5.8810 *     9.8017 *  0.0000     8          
   111  Cl    c     -9.4089 *     0.0000       7.8414 *  0.0000     4          
   112  Li    c     -7.4486 *     5.8810 *     7.8414 *  0.0000     8          
   113  Li    c     -7.4486 *     9.8017 *     0.0000    0.0000     4          
   114  Li    c     12.1548 *    -1.9603 *     0.0000    0.0000     4          
   115  Cl    c     -5.4882 *     7.8414 *     7.8414    0.0000     4          
   116  Li    c     -3.5279 *    11.7620 *    -1.9603 *  0.0000     8          
   117  O     c     -7.4486 *    -1.9603 *     9.8017 *  0.0000     8          
   118  O     c     12.1548 *    -1.9603 *    -1.9603    0.0000     4          
   119  Cl    c     -1.5675 *     3.9207 *    11.7620 *  0.0000     8          
   120  Li    c     -9.4089 *     5.8810 *     5.8810    0.0000     4          
   121  Li    c      0.3928 *     9.8017 *     7.8414 *  0.0000     8          
   122  Cl    c      2.3531 *     3.9207 *    11.7620 *  0.0000     8          
   123  Li    c     -5.4882 *     5.8810 *     9.8017 *  0.0000     8          
   124  Li    c      4.3135 *    11.7620 *    -1.9603 *  0.0000     8          
   125  Cl    c      6.2738 *     7.8414 *     7.8414    0.0000     4          
   126  Li    c    -11.3692 *     5.8810 *     0.0000    0.0000     4          
   127  Li    c      8.2341 *     5.8810 *     7.8414 *  0.0000     8          
   128  Li    c      8.2341 *     9.8017 *     0.0000    0.0000     4          
   129  Cl    c     -9.4089 *     3.9207 *     7.8414 *  0.0000     8          
   130  Cl    c     10.1945 *     0.0000       7.8414 *  0.0000     4          
   131  Li    c     -7.4486 *     9.8017 *     3.9207 *  0.0000     8          
   132  Li    c     12.1548 *    -1.9603 *     3.9207 *  0.0000     8          
   133  O     c    -11.3692 *    -1.9603 *     5.8810 *  0.0000     8          
   134  O     c      8.2341 *     9.8017 *    -1.9603 *  0.0000     8          
   135  Cl    c     -5.4882 *     0.0000      11.7620 *  0.0000     4          
   136  Li    c     -3.5279 *     7.8414 *     9.8017 *  0.0000     8          
   137  Li    c      6.2738 *     5.8810 *     9.8017 *  0.0000     8          
   138  Li    c      0.3928 *     5.8810 *    11.7620 *  0.0000     8          
   139  Li    c     10.1945 *     5.8810 *     5.8810    0.0000     4          
   140  Li    c      4.3135 *     9.8017 *     7.8414 *  0.0000     8          
   141  Cl    c    -13.3296 *     0.0000       0.0000    0.0000     1          
   142  Cl    c      6.2738 *     0.0000      11.7620 *  0.0000     4          
   143  Li    c    -11.3692 *     5.8810 *     3.9207 *  0.0000     8          
   144  Li    c      8.2341 *     9.8017 *     3.9207 *  0.0000     8          
   145  Cl    c     10.1945 *     3.9207 *     7.8414 *  0.0000     8          
   146  Li    c     12.1548 *     5.8810 *     0.0000    0.0000     4          
   147  Cl    c     -5.4882 *     3.9207 *    11.7620 *  0.0000     8          
   148  Li    c    -13.3296 *    -1.9603 *    -1.9603    0.0000     4          
   149  Li    c     -3.5279 *    11.7620 *     5.8810 *  0.0000     8          
   150  O     c     -7.4486 *     5.8810 *     9.8017 *  0.0000     8          
   151  O     c     12.1548 *    -1.9603 *     5.8810 *  0.0000     8          
   152  Li    c     -9.4089 *     9.8017 *    -1.9603 *  0.0000     8          
   153  Li    c      0.3928 *    13.7224 *     0.0000    0.0000     4          
   154  Li    c      4.3135 *     5.8810 *    11.7620 *  0.0000     8          
   155  O     c      0.3928 *    -1.9603 *    13.7224 *  0.0000     8          
   156  O     c      0.3928 *     9.8017 *     9.8017    0.0000     4          
   157  Cl    c    -13.3296 *     0.0000       3.9207 *  0.0000     4          
   158  Cl    c      6.2738 *    11.7620 *     3.9207 *  0.0000     8          
   159  Li    c    -11.3692 *    -1.9603 *     7.8414 *  0.0000     8          
   160  Li    c     -1.5675 *    -1.9603 *    13.7224 *  0.0000     8          
   161  Li    c     -1.5675 *     9.8017 *     9.8017    0.0000     4          
   162  Li    c     -7.4486 *    -1.9603 *    11.7620 *  0.0000     8          
   163  Li    c      2.3531 *    -1.9603 *    13.7224 *  0.0000     8          
   164  Li    c      2.3531 *     9.8017 *     9.8017    0.0000     4          
   165  Li    c     12.1548 *     5.8810 *     3.9207 *  0.0000     8          
   166  O     c    -11.3692 *     5.8810 *     5.8810    0.0000     4          
   167  O     c      8.2341 *     5.8810 *     9.8017 *  0.0000     8          
   168  Cl    c     14.1152 *     0.0000       0.0000    0.0000     1          
   169  Li    c     -3.5279 *    13.7224 *     0.0000    0.0000     4          
   170  Cl    c     -1.5675 *     7.8414 *    11.7620 *  0.0000     8          
   171  Li    c      0.3928 *    13.7224 *     3.9207 *  0.0000     8          
   172  Li    c     10.1945 *    -1.9603 *     9.8017 *  0.0000     8          
   173  O     c     -3.5279 *    13.7224 *    -1.9603 *  0.0000     8          
   174  O     c     -3.5279 *     9.8017 *     9.8017    0.0000     4          
   175  Cl    c      2.3531 *     7.8414 *    11.7620 *  0.0000     8          
   176  Li    c      4.3135 *    13.7224 *     0.0000    0.0000     4          
   177  Li    c     14.1152 *    -1.9603 *    -1.9603    0.0000     4          
   178  Cl    c    -13.3296 *     3.9207 *     3.9207    0.0000     4          
   179  Li    c      8.2341 *    -1.9603 *    11.7620 *  0.0000     8          
   180  O     c      4.3135 *    13.7224 *    -1.9603 *  0.0000     8          
   181  O     c      4.3135 *     9.8017 *     9.8017    0.0000     4          
   182  Cl    c     -9.4089 *     7.8414 *     7.8414    0.0000     4          
   183  Li    c     -7.4486 *     9.8017 *     7.8414 *  0.0000     8          
   184  Li    c     12.1548 *    -1.9603 *     7.8414 *  0.0000     8          
   185  Cl    c     14.1152 *     0.0000       3.9207 *  0.0000     4          
   186  Li    c    -13.3296 *    -1.9603 *     5.8810 *  0.0000     8          
   187  Li    c     -3.5279 *    13.7224 *     3.9207 *  0.0000     8          
   188  O     c     12.1548 *     5.8810 *     5.8810    0.0000     4          
   189  Li    c     -9.4089 *     9.8017 *     5.8810 *  0.0000     8          
   190  Li    c     -5.4882 *    -1.9603 *    13.7224 *  0.0000     8          
   191  Li    c     -5.4882 *     9.8017 *     9.8017    0.0000     4          
   192  Li    c      4.3135 *    13.7224 *     3.9207 *  0.0000     8          
   193  O     c      0.3928 *     5.8810 *    13.7224 *  0.0000     8          
   194  Li    c    -11.3692 *     5.8810 *     7.8414 *  0.0000     8          
   195  Li    c    -11.3692 *     9.8017 *     0.0000    0.0000     4          
   196  Li    c     -1.5675 *     5.8810 *    13.7224 *  0.0000     8          
   197  Li    c      8.2341 *     9.8017 *     7.8414 *  0.0000     8          
   198  Cl    c     -9.4089 *     0.0000      11.7620 *  0.0000     4          
   199  Cl    c     10.1945 *     7.8414 *     7.8414    0.0000     4          
   200  Li    c     -7.4486 *     5.8810 *    11.7620 *  0.0000     8          
   201  Li    c      2.3531 *     5.8810 *    13.7224 *  0.0000     8          
   202  O     c    -11.3692 *    -1.9603 *     9.8017 *  0.0000     8          
   203  Cl    c     -5.4882 *     7.8414 *    11.7620 *  0.0000     8          
   204  Cl    c     14.1152 *     3.9207 *     3.9207    0.0000     4          
   205  Li    c      6.2738 *    -1.9603 *    13.7224 *  0.0000     8          
   206  Li    c      6.2738 *     9.8017 *     9.8017    0.0000     4          
   207  Li    c      0.3928 *     9.8017 *    11.7620 *  0.0000     8          
   208  Li    c     10.1945 *     5.8810 *     9.8017 *  0.0000     8          
   209  O     c     -3.5279 *     5.8810 *    13.7224 *  0.0000     8          
   210  Li    c    -15.2899 *    -1.9603 *     0.0000    0.0000     4          
   211  Li    c     14.1152 *    -1.9603 *     5.8810 *  0.0000     8          
   212  Cl    c    -13.3296 *     0.0000       7.8414 *  0.0000     4          
   213  Cl    c      6.2738 *    11.7620 *     7.8414 *  0.0000     8          
   214  Li    c    -11.3692 *     9.8017 *     3.9207 *  0.0000     8          
   215  Li    c      8.2341 *     5.8810 *    11.7620 *  0.0000     8          
   216  O     c    -15.2899 *    -1.9603 *    -1.9603    0.0000     4          
   217  O     c      4.3135 *    13.7224 *     5.8810 *  0.0000     8          
   218  Cl    c     -9.4089 *     3.9207 *    11.7620 *  0.0000     8          
   219  Cl    c     10.1945 *     0.0000      11.7620 *  0.0000     4          
   220  Li    c     -7.4486 *    13.7224 *     0.0000    0.0000     4          
   221  Li    c     12.1548 *     5.8810 *     7.8414 *  0.0000     8          
   222  Li    c     12.1548 *     9.8017 *     0.0000    0.0000     4          
   223  Li    c    -13.3296 *     5.8810 *     5.8810    0.0000     4          
   224  Li    c     -3.5279 *    11.7620 *     9.8017 *  0.0000     8          
   225  O     c     -7.4486 *    -1.9603 *    13.7224 *  0.0000     8          
   226  O     c     -7.4486 *     9.8017 *     9.8017    0.0000     4          
   227  O     c     12.1548 *    -1.9603 *     9.8017 *  0.0000     8          
   228  Cl    c     -1.5675 *     0.0000      15.6827 *  0.0000     4          
   229  Li    c      0.3928 *    -1.9603 *    15.6827 *  0.0000     8          
   230  Li    c      0.3928 *    13.7224 *     7.8414 *  0.0000     8          
   231  Cl    c      2.3531 *     0.0000      15.6827 *  0.0000     4          
   232  Li    c    -15.2899 *    -1.9603 *     3.9207 *  0.0000     8          
   233  Li    c     -5.4882 *     5.8810 *    13.7224 *  0.0000     8          
   234  Li    c      4.3135 *     9.8017 *    11.7620 *  0.0000     8          
   235  Cl    c    -13.3296 *     3.9207 *     7.8414 *  0.0000     8          
   236  Li    c      8.2341 *    13.7224 *     0.0000    0.0000     4          
   237  Cl    c     10.1945 *     3.9207 *    11.7620 *  0.0000     8          
   238  Li    c     -7.4486 *    13.7224 *     3.9207 *  0.0000     8          
   239  Li    c     12.1548 *     3.9207 *     9.8017 *  0.0000     8          
   240  O     c    -11.3692 *     5.8810 *     9.8017 *  0.0000     8          
   241  O     c      8.2341 *    -1.9603 *    13.7224 *  0.0000     8          
   242  O     c      8.2341 *     9.8017 *     9.8017    0.0000     4          
   243  Cl    c     14.1152 *     0.0000       7.8414 *  0.0000     4          
   244  Li    c     -3.5279 *    -1.9603 *    15.6827 *  0.0000     8          
   245  Li    c     -3.5279 *    13.7224 *     7.8414 *  0.0000     8          
   246  Li    c      6.2738 *     5.8810 *    13.7224 *  0.0000     8          
   247  Li    c     16.0755 *    -1.9603 *     0.0000    0.0000     4          
   248  Cl    c     -1.5675 *     3.9207 *    15.6827 *  0.0000     8          
   249  O     c     16.0755 *    -1.9603 *    -1.9603    0.0000     4          
   250  Cl    c      2.3531 *     3.9207 *    15.6827 *  0.0000     8          
   251  Li    c    -15.2899 *     5.8810 *     0.0000    0.0000     4          
   252  Li    c      4.3135 *    -1.9603 *    15.6827 *  0.0000     8          
   253  Li    c      4.3135 *    13.7224 *     7.8414 *  0.0000     8          
   254  Li    c     14.1152 *     5.8810 *     5.8810    0.0000     4          
   255  Li    c    -11.3692 *    11.7620 *    -1.9603 *  0.0000     8          
   256  Li    c      8.2341 *     3.9207 *    13.7224 *  0.0000     8          
   257  O     c    -15.2899 *     5.8810 *    -1.9603 *  0.0000     8          
   258  Cl    c     -5.4882 *     0.0000      15.6827 *  0.0000     4          
   259  Cl    c     14.1152 *     3.9207 *     7.8414 *  0.0000     8          
   260  Li    c    -13.3296 *     9.8017 *    -1.9603 *  0.0000     8          
   261  Li    c     16.0755 *    -1.9603 *     3.9207 *  0.0000     8          
   262  O     c     -7.4486 *     5.8810 *    13.7224 *  0.0000     8          
   263  O     c     12.1548 *     5.8810 *     9.8017 *  0.0000     8          
   264  Cl    c     -1.5675 *    11.7620 *    11.7620    0.0000     4          
   265  Li    c     -9.4089 *    13.7224 *    -1.9603 *  0.0000     8          
   266  Li    c     -9.4089 *     9.8017 *     9.8017    0.0000     4          
   267  Li    c      0.3928 *     5.8810 *    15.6827 *  0.0000     8          
   268  Cl    c      2.3531 *    11.7620 *    11.7620    0.0000     4          
   269  Li    c    -15.2899 *     5.8810 *     3.9207 *  0.0000     8          
   270  O     c      0.3928 *     9.8017 *    13.7224 *  0.0000     8          
   271  Cl    c      6.2738 *     0.0000      15.6827 *  0.0000     4          
   272  Li    c    -11.3692 *     7.8414 *     9.8017 *  0.0000     8          
   273  Li    c     -1.5675 *     9.8017 *    13.7224 *  0.0000     8          
   274  Cl    c     -9.4089 *     7.8414 *    11.7620 *  0.0000     8          
   275  Li    c     -7.4486 *     9.8017 *    11.7620 *  0.0000     8          
   276  Li    c      2.3531 *     9.8017 *    13.7224 *  0.0000     8          
   277  Li    c     12.1548 *    11.7620 *    -1.9603 *  0.0000     8          
   278  O     c      8.2341 *     5.8810 *    13.7224 *  0.0000     8          
   279  Cl    c     -5.4882 *     3.9207 *    15.6827 *  0.0000     8          
   280  Li    c     -3.5279 *     5.8810 *    15.6827 *  0.0000     8          
   281  Li    c     16.0755 *     5.8810 *     0.0000    0.0000     4          
   282  Li    c     10.1945 *    -1.9603 *    13.7224 *  0.0000     8          
   283  Li    c     10.1945 *     9.8017 *     9.8017    0.0000     4          
   284  O     c     -3.5279 *     9.8017 *    13.7224 *  0.0000     8          
   285  O     c     16.0755 *     5.8810 *    -1.9603 *  0.0000     8          
   286  Cl    c    -17.2503 *     0.0000       0.0000    0.0000     1          
   287  Li    c    -15.2899 *    -1.9603 *     7.8414 *  0.0000     8          
   288  Li    c      4.3135 *     5.8810 *    15.6827 *  0.0000     8          
   289  Li    c     14.1152 *    -1.9603 *     9.8017 *  0.0000     8          
   290  Cl    c    -13.3296 *     7.8414 *     7.8414    0.0000     4          
   291  Cl    c      6.2738 *     3.9207 *    15.6827 *  0.0000     8          
   292  Li    c    -11.3692 *    11.7620 *     5.8810 *  0.0000     8          
   293  Li    c      8.2341 *     9.8017 *    11.7620 *  0.0000     8          
   294  O     c    -15.2899 *     5.8810 *     5.8810    0.0000     4          
   295  O     c      4.3135 *     9.8017 *    13.7224 *  0.0000     8          
   296  Cl    c     10.1945 *     7.8414 *    11.7620 *  0.0000     8          
   297  Li    c    -17.2503 *    -1.9603 *    -1.9603    0.0000     4          
   298  Li    c     -7.4486 *    -1.9603 *    15.6827 *  0.0000     8          
   299  Li    c     -7.4486 *    13.7224 *     7.8414 *  0.0000     8          
   300  Li    c     12.1548 *     7.8414 *     9.8017 *  0.0000     8          
   301  Cl    c     -5.4882 *    11.7620 *    11.7620    0.0000     4          
   302  Li    c    -13.3296 *     9.8017 *     5.8810 *  0.0000     8          
   303  Li    c     16.0755 *     5.8810 *     3.9207 *  0.0000     8          
   304  Cl    c     -1.5675 *     7.8414 *    15.6827 *  0.0000     8          
   305  Li    c     -9.4089 *    13.7224 *     5.8810 *  0.0000     8          
   306  Li    c      0.3928 *    17.6430 *     0.0000    0.0000     4          
   307  Cl    c    -17.2503 *     0.0000       3.9207 *  0.0000     4          
   308  Cl    c      2.3531 *     7.8414 *    15.6827 *  0.0000     8          
   309  Li    c     -5.4882 *     9.8017 *    13.7224 *  0.0000     8          
   310  O     c      0.3928 *    -1.9603 *    17.6430 *  0.0000     8          
   311  Cl    c    -13.3296 *     0.0000      11.7620 *  0.0000     4          
   312  Cl    c      6.2738 *    11.7620 *    11.7620    0.0000     4          
   313  Li    c    -11.3692 *    13.7224 *     0.0000    0.0000     4          
   314  Li    c     -1.5675 *    -1.9603 *    17.6430 *  0.0000     8          
   315  Li    c      8.2341 *    15.6827 *    -1.9603 *  0.0000     8          
   316  Li    c      8.2341 *     7.8414 *    13.7224 *  0.0000     8          
   317  Li    c      2.3531 *    -1.9603 *    17.6430 *  0.0000     8          
   318  Li    c     12.1548 *    11.7620 *     5.8810 *  0.0000     8          
   319  O     c    -11.3692 *    -1.9603 *    13.7224 *  0.0000     8          
   320  O     c    -11.3692 *     9.8017 *     9.8017    0.0000     4          
   321  Cl    c     14.1152 *     7.8414 *     7.8414    0.0000     4          
   322  Li    c     -3.5279 *    17.6430 *     0.0000    0.0000     4          
   323  Li    c      6.2738 *     9.8017 *    13.7224 *  0.0000     8          
   324  Li    c     16.0755 *    -1.9603 *     7.8414 *  0.0000     8          
   325  Cl    c     18.0358 *     0.0000       0.0000    0.0000     1          
   326  Li    c      0.3928 *    13.7224 *    11.7620 *  0.0000     8          
   327  Li    c      0.3928 *     3.9207 *    17.6430 *  0.0000     8          
   328  Li    c     10.1945 *     5.8810 *    13.7224 *  0.0000     8          
   329  O     c     -3.5279 *    -1.9603 *    17.6430 *  0.0000     8          
   330  O     c     16.0755 *     5.8810 *     5.8810    0.0000     4          
   331  Cl    c    -17.2503 *     3.9207 *     3.9207    0.0000     4          
   332  Li    c    -15.2899 *     5.8810 *     7.8414 *  0.0000     8          
   333  Li    c    -15.2899 *     9.8017 *     0.0000    0.0000     4          
   334  Li    c      4.3135 *    17.6430 *     0.0000    0.0000     4          
   335  Li    c     14.1152 *     5.8810 *     9.8017 *  0.0000     8          
   336  Cl    c    -13.3296 *     3.9207 *    11.7620 *  0.0000     8          
   337  Li    c    -11.3692 *     3.9207 *    13.7224 *  0.0000     8          
   338  Li    c     18.0358 *    -1.9603 *    -1.9603    0.0000     4          
   339  O     c    -15.2899 *    -1.9603 *     9.8017 *  0.0000     8          
   340  O     c      4.3135 *    -1.9603 *    17.6430 *  0.0000     8          
   341  Cl    c     -9.4089 *     0.0000      15.6827 *  0.0000     4          
   342  Li    c    -17.2503 *     5.8810 *    -1.9603 *  0.0000     8          
   343  Li    c     -7.4486 *     5.8810 *    15.6827 *  0.0000     8          
   344  Li    c     12.1548 *    13.7224 *     0.0000    0.0000     4          
   345  Cl    c     -5.4882 *     7.8414 *    15.6827 *  0.0000     8          
   346  Cl    c     14.1152 *     0.0000      11.7620 *  0.0000     4          
   347  Li    c     -3.5279 *    13.7224 *    11.7620 *  0.0000     8          
   348  Li    c     -3.5279 *    17.6430 *     3.9207 *  0.0000     8          
   349  O     c     -7.4486 *     9.8017 *    13.7224 *  0.0000     8          
   350  O     c     12.1548 *    -1.9603 *    13.7224 *  0.0000     8          
   351  O     c     12.1548 *     9.8017 *     9.8017    0.0000     4          
   352  Cl    c     18.0358 *     0.0000       3.9207 *  0.0000     4          
   353  Li    c      0.3928 *     9.8017 *    15.6827 *  0.0000     8          
   354  Li    c    -15.2899 *     3.9207 *     9.8017 *  0.0000     8          
   355  Li    c     -5.4882 *    17.6430 *    -1.9603 *  0.0000     8          
   356  Li    c      4.3135 *    13.7224 *    11.7620 *  0.0000     8          
   357  Li    c      4.3135 *     3.9207 *    17.6430 *  0.0000     8          
   358  O     c      0.3928 *     5.8810 *    17.6430 *  0.0000     8          
   359  Cl    c      6.2738 *     7.8414 *    15.6827 *  0.0000     8          
   360  Li    c     -1.5675 *    17.6430 *     5.8810 *  0.0000     8          
   361  Li    c      8.2341 *    15.6827 *     5.8810 *  0.0000     8          
   362  Cl    c     -9.4089 *     3.9207 *    15.6827 *  0.0000     8          
   363  Cl    c     10.1945 *     0.0000      15.6827 *  0.0000     4          
   364  Li    c      2.3531 *     5.8810 *    17.6430 *  0.0000     8          
   365  Li    c     12.1548 *     3.9207 *    13.7224 *  0.0000     8          
   366  O     c    -11.3692 *     5.8810 *    13.7224 *  0.0000     8          
   367  O     c      8.2341 *     9.8017 *    13.7224 *  0.0000     8          
   368  Cl    c     14.1152 *     3.9207 *    11.7620 *  0.0000     8          
   369  Li    c     -3.5279 *     9.8017 *    15.6827 *  0.0000     8          
   370  Li    c      6.2738 *    -1.9603 *    17.6430 *  0.0000     8          
   371  Li    c     16.0755 *     5.8810 *     7.8414 *  0.0000     8          
   372  Li    c     16.0755 *     9.8017 *     0.0000    0.0000     4          
   373  Cl    c     18.0358 *     3.9207 *     3.9207    0.0000     4          
   374  O     c     -3.5279 *     5.8810 *    17.6430 *  0.0000     8          
   375  O     c     16.0755 *    -1.9603 *     9.8017 *  0.0000     8          
   376  Cl    c    -17.2503 *     0.0000       7.8414 *  0.0000     4          
   377  Li    c      4.3135 *    15.6827 *     9.8017 *  0.0000     8          
   378  Li    c    -11.3692 *     9.8017 *    11.7620 *  0.0000     8          
   379  Li    c     18.0358 *     5.8810 *    -1.9603 *  0.0000     8          
   380  O     c    -15.2899 *     5.8810 *     9.8017 *  0.0000     8          
   381  O     c      4.3135 *     5.8810 *    17.6430 *  0.0000     8          
   382  Cl    c     -9.4089 *    11.7620 *    11.7620    0.0000     4          
   383  Cl    c     10.1945 *     3.9207 *    15.6827 *  0.0000     8          
   384  Li    c    -17.2503 *     5.8810 *     5.8810    0.0000     4          
   385  Li    c     -7.4486 *    17.6430 *     0.0000    0.0000     4          
   386  Li    c    -13.3296 *    13.7224 *    -1.9603 *  0.0000     8          
   387  Li    c    -13.3296 *     9.8017 *     9.8017    0.0000     4          
   388  Li    c     16.0755 *     3.9207 *     9.8017 *  0.0000     8          
   389  O     c     -7.4486 *    -1.9603 *    17.6430 *  0.0000     8          
   390  O     c     12.1548 *     5.8810 *    13.7224 *  0.0000     8          
   391  Li    c    -19.2106 *    -1.9603 *     0.0000    0.0000     4          
   392  Li    c     -9.4089 *     9.8017 *    13.7224 *  0.0000     8          
   393  Li    c      0.3928 *     7.8414 *    17.6430 *  0.0000     8          
   394  Cl    c    -17.2503 *     3.9207 *     7.8414 *  0.0000     8          
   395  Li    c    -15.2899 *    -1.9603 *    11.7620 *  0.0000     8          
   396  Li    c     -5.4882 *    17.6430 *     5.8810 *  0.0000     8          
   397  O     c    -19.2106 *    -1.9603 *    -1.9603    0.0000     4          
   398  O     c      0.3928 *    13.7224 *    13.7224    0.0000     4          
   399  Cl    c    -13.3296 *     7.8414 *    11.7620 *  0.0000     8          
   400  Li    c    -11.3692 *    -1.9603 *    15.6827 *  0.0000     8          
   401  Li    c    -11.3692 *     7.8414 *    13.7224 *  0.0000     8          
   402  Li    c     -1.5675 *    13.7224 *    13.7224    0.0000     4          
   403  Li    c      8.2341 *    17.6430 *     0.0000    0.0000     4          
   404  Cl    c     10.1945 *    11.7620 *    11.7620    0.0000     4          
   405  Li    c     -7.4486 *    13.7224 *    11.7620 *  0.0000     8          
   406  Li    c     -7.4486 *     3.9207 *    17.6430 *  0.0000     8          
   407  Li    c      2.3531 *    13.7224 *    13.7224    0.0000     4          
   408  Li    c     12.1548 *     9.8017 *    11.7620 *  0.0000     8          
   409  O     c      8.2341 *    -1.9603 *    17.6430 *  0.0000     8          
   410  Li    c     -3.5279 *    17.6430 *     7.8414 *  0.0000     8          
   411  Li    c      6.2738 *    17.6430 *     5.8810 *  0.0000     8          
   412  Cl    c     -1.5675 *    11.7620 *    15.6827 *  0.0000     8          
   413  Cl    c     -1.5675 *     0.0000      19.6034 *  0.0000     4          
   414  Cl    c     18.0358 *     0.0000       7.8414 *  0.0000     4          
   415  Li    c    -19.2106 *    -1.9603 *     3.9207 *  0.0000     8          
   416  Li    c      0.3928 *    -1.9603 *    19.6034 *  0.0000     8          
   417  Li    c     10.1945 *     9.8017 *    13.7224 *  0.0000     8          
   418  O     c     -3.5279 *    13.7224 *    13.7224    0.0000     4          
   419  O     c     16.0755 *     5.8810 *     9.8017 *  0.0000     8          
   420  Cl    c      2.3531 *    11.7620 *    15.6827 *  0.0000     8          
   421  Cl    c      2.3531 *     0.0000      19.6034 *  0.0000     4          
   422  Li    c    -15.2899 *     7.8414 *     9.8017 *  0.0000     8          
   423  Li    c      4.3135 *     7.8414 *    17.6430 *  0.0000     8          
   424  Li    c     14.1152 *    -1.9603 *    13.7224 *  0.0000     8          
   425  Li    c     14.1152 *     9.8017 *     9.8017    0.0000     4          
   426  Li    c      8.2341 *    13.7224 *    11.7620 *  0.0000     8          
   427  Li    c      8.2341 *    17.6430 *     3.9207 *  0.0000     8          
   428  Li    c     18.0358 *     5.8810 *     5.8810    0.0000     4          
   429  O     c      4.3135 *    13.7224 *    13.7224    0.0000     4          
   430  Cl    c     -9.4089 *     7.8414 *    15.6827 *  0.0000     8          
   431  Li    c    -17.2503 *    -1.9603 *     9.8017 *  0.0000     8          
   432  Li    c     -7.4486 *    15.6827 *     9.8017 *  0.0000     8          
   433  Li    c     12.1548 *    -1.9603 *    15.6827 *  0.0000     8          
   434  Li    c     12.1548 *     7.8414 *    13.7224 *  0.0000     8          
   435  Cl    c     14.1152 *     7.8414 *    11.7620 *  0.0000     8          
   436  Cl    s      0.0000       0.0000       0.0000    0.0000     1    Defect
   437  O     s      0.3928 *    -1.9603 *    -1.9603    0.0000     4          
   438  Cl    s     -1.5675 *     0.0000       3.9207 *  0.0000     4          
   439  O     s     -3.5279 *    -1.9603 *    -1.9603    0.0000     4          
   440  Cl    s      2.3531 *     0.0000       3.9207 *  0.0000     4          
   441  O     s      4.3135 *    -1.9603 *    -1.9603    0.0000     4          
   442  Cl    s     -5.4882 *     0.0000       0.0000    0.0000     1          
   443  Cl    s     -1.5675 *     3.9207 *     3.9207    0.0000     4          
   444  Cl    s      2.3531 *     3.9207 *     3.9207    0.0000     4          
   445  O     s      0.3928 *     5.8810 *    -1.9603 *  0.0000     8          
   446  Cl    s      6.2738 *     0.0000       0.0000    0.0000     1          
   447  Cl    s     -5.4882 *     0.0000       3.9207 *  0.0000     4          
   448  O     s     -3.5279 *    -1.9603 *     5.8810 *  0.0000     8          
   449  Cl    s      6.2738 *     0.0000       3.9207 *  0.0000     4          
   450  O     s      4.3135 *    -1.9603 *     5.8810 *  0.0000     8          
   451  Cl    s     -5.4882 *     3.9207 *     3.9207    0.0000     4          
   452  O     s     -7.4486 *    -1.9603 *    -1.9603    0.0000     4          
   453  Cl    s     -1.5675 *     0.0000       7.8414 *  0.0000     4          
   454  Cl    s      2.3531 *     0.0000       7.8414 *  0.0000     4          
   455  O     s      0.3928 *     5.8810 *     5.8810    0.0000     4          
   456  Cl    s      6.2738 *     3.9207 *     3.9207    0.0000     4          
   457  O     s      8.2341 *    -1.9603 *    -1.9603    0.0000     4          
   458  Cl    s     -1.5675 *     3.9207 *     7.8414 *  0.0000     8          
   459  O     s     -3.5279 *     5.8810 *     5.8810    0.0000     4          
   460  Cl    s      2.3531 *     3.9207 *     7.8414 *  0.0000     8          
   461  O     s      4.3135 *     5.8810 *     5.8810    0.0000     4          
   462  Cl    s     -9.4089 *     0.0000       0.0000    0.0000     1          
   463  Cl    s     -5.4882 *     0.0000       7.8414 *  0.0000     4          
   464  O     s     -7.4486 *    -1.9603 *     5.8810 *  0.0000     8          
   465  O     s      0.3928 *    -1.9603 *     9.8017 *  0.0000     8          
   466  Cl    s      6.2738 *     0.0000       7.8414 *  0.0000     4          
   467  Cl    s     -9.4089 *     0.0000       3.9207 *  0.0000     4          
   468  Cl    s     10.1945 *     0.0000       0.0000    0.0000     1          
   469  O     s      8.2341 *    -1.9603 *     5.8810 *  0.0000     8          
   470  Cl    s     -5.4882 *     3.9207 *     7.8414 *  0.0000     8          
   471  O     s     -3.5279 *    -1.9603 *     9.8017 *  0.0000     8          
   472  Cl    s      6.2738 *     3.9207 *     7.8414 *  0.0000     8          
   473  O     s      4.3135 *    -1.9603 *     9.8017 *  0.0000     8          
   474  Cl    s     -9.4089 *     3.9207 *     3.9207    0.0000     4          
   475  Cl    s     10.1945 *     0.0000       3.9207 *  0.0000     4          
   476  O     s     -7.4486 *     5.8810 *     5.8810    0.0000     4          
   477  Cl    s     -1.5675 *     7.8414 *     7.8414    0.0000     4          
   478  Cl    s      2.3531 *     7.8414 *     7.8414    0.0000     4          
   479  O     s      0.3928 *     5.8810 *     9.8017 *  0.0000     8          
   480  Cl    s     10.1945 *     3.9207 *     3.9207    0.0000     4          
   481  O     s    -11.3692 *    -1.9603 *    -1.9603    0.0000     4          
   482  O     s      8.2341 *     5.8810 *     5.8810    0.0000     4          
   483  Cl    s     -1.5675 *     0.0000      11.7620 *  0.0000     4          
   484  O     s     -3.5279 *     5.8810 *     9.8017 *  0.0000     8          
   485  Cl    s      2.3531 *     0.0000      11.7620 *  0.0000     4          
   486  O     s      4.3135 *     5.8810 *     9.8017 *  0.0000     8          
   487  Cl    s     -9.4089 *     0.0000       7.8414 *  0.0000     4          
   488  Cl    s     -5.4882 *     7.8414 *     7.8414    0.0000     4          
   489  O     s     -7.4486 *    -1.9603 *     9.8017 *  0.0000     8          
   490  O     s     12.1548 *    -1.9603 *    -1.9603    0.0000     4          
   491  Cl    s     -1.5675 *     3.9207 *    11.7620 *  0.0000     8          
   492  Cl    s      2.3531 *     3.9207 *    11.7620 *  0.0000     8          
   493  Cl    s      6.2738 *     7.8414 *     7.8414    0.0000     4          
   494  Cl    s     -9.4089 *     3.9207 *     7.8414 *  0.0000     8          
   495  Cl    s     10.1945 *     0.0000       7.8414 *  0.0000     4          
   496  O     s    -11.3692 *    -1.9603 *     5.8810 *  0.0000     8          
   497  O     s      8.2341 *     9.8017 *    -1.9603 *  0.0000     8          
   498  Cl    s     -5.4882 *     0.0000      11.7620 *  0.0000     4          
   499  Cl    s    -13.3296 *     0.0000       0.0000    0.0000     1          
   500  Cl    s      6.2738 *     0.0000      11.7620 *  0.0000     4          
   501  Cl    s     10.1945 *     3.9207 *     7.8414 *  0.0000     8          
   502  Cl    s     -5.4882 *     3.9207 *    11.7620 *  0.0000     8          
   503  O     s     -7.4486 *     5.8810 *     9.8017 *  0.0000     8          
   504  O     s     12.1548 *    -1.9603 *     5.8810 *  0.0000     8          
   505  O     s      0.3928 *    -1.9603 *    13.7224 *  0.0000     8          
   506  O     s      0.3928 *     9.8017 *     9.8017    0.0000     4          
   507  Cl    s    -13.3296 *     0.0000       3.9207 *  0.0000     4          
   508  Cl    s      6.2738 *    11.7620 *     3.9207 *  0.0000     8          
   509  O     s    -11.3692 *     5.8810 *     5.8810    0.0000     4          
   510  O     s      8.2341 *     5.8810 *     9.8017 *  0.0000     8          
   511  Cl    s     14.1152 *     0.0000       0.0000    0.0000     1          
   512  Cl    s     -1.5675 *     7.8414 *    11.7620 *  0.0000     8          
   513  O     s     -3.5279 *    13.7224 *    -1.9603 *  0.0000     8          
   514  O     s     -3.5279 *     9.8017 *     9.8017    0.0000     4          
   515  Cl    s      2.3531 *     7.8414 *    11.7620 *  0.0000     8          
   516  Cl    s    -13.3296 *     3.9207 *     3.9207    0.0000     4          
   517  O     s      4.3135 *    13.7224 *    -1.9603 *  0.0000     8          
   518  O     s      4.3135 *     9.8017 *     9.8017    0.0000     4          
   519  Cl    s     -9.4089 *     7.8414 *     7.8414    0.0000     4          
   520  Cl    s     14.1152 *     0.0000       3.9207 *  0.0000     4          
   521  O     s     12.1548 *     5.8810 *     5.8810    0.0000     4          
   522  O     s      0.3928 *     5.8810 *    13.7224 *  0.0000     8          
   523  Cl    s     -9.4089 *     0.0000      11.7620 *  0.0000     4          
   524  Cl    s     10.1945 *     7.8414 *     7.8414    0.0000     4          
   525  O     s    -11.3692 *    -1.9603 *     9.8017 *  0.0000     8          
   526  Cl    s     -5.4882 *     7.8414 *    11.7620 *  0.0000     8          
   527  Cl    s     14.1152 *     3.9207 *     3.9207    0.0000     4          
   528  O     s     -3.5279 *     5.8810 *    13.7224 *  0.0000     8          
   529  Cl    s    -13.3296 *     0.0000       7.8414 *  0.0000     4          
   530  Cl    s      6.2738 *    11.7620 *     7.8414 *  0.0000     8          
   531  O     s    -15.2899 *    -1.9603 *    -1.9603    0.0000     4          
   532  O     s      4.3135 *    13.7224 *     5.8810 *  0.0000     8          
   533  Cl    s     -9.4089 *     3.9207 *    11.7620 *  0.0000     8          
   534  Cl    s     10.1945 *     0.0000      11.7620 *  0.0000     4          
   535  O     s     -7.4486 *    -1.9603 *    13.7224 *  0.0000     8          
   536  O     s     -7.4486 *     9.8017 *     9.8017    0.0000     4          
   537  O     s     12.1548 *    -1.9603 *     9.8017 *  0.0000     8          
   538  Cl    s     -1.5675 *     0.0000      15.6827 *  0.0000     4          
   539  Cl    s      2.3531 *     0.0000      15.6827 *  0.0000     4          
   540  Cl    s    -13.3296 *     3.9207 *     7.8414 *  0.0000     8          
   541  Cl    s     10.1945 *     3.9207 *    11.7620 *  0.0000     8          
   542  O     s    -11.3692 *     5.8810 *     9.8017 *  0.0000     8          
   543  O     s      8.2341 *    -1.9603 *    13.7224 *  0.0000     8          
   544  O     s      8.2341 *     9.8017 *     9.8017    0.0000     4          
   545  Cl    s     14.1152 *     0.0000       7.8414 *  0.0000     4          
   546  Cl    s     -1.5675 *     3.9207 *    15.6827 *  0.0000     8          
   547  O     s     16.0755 *    -1.9603 *    -1.9603    0.0000     4          
   548  Cl    s      2.3531 *     3.9207 *    15.6827 *  0.0000     8          
   549  O     s    -15.2899 *     5.8810 *    -1.9603 *  0.0000     8          
   550  Cl    s     -5.4882 *     0.0000      15.6827 *  0.0000     4          
   551  Cl    s     14.1152 *     3.9207 *     7.8414 *  0.0000     8          
   552  O     s     -7.4486 *     5.8810 *    13.7224 *  0.0000     8          
   553  O     s     12.1548 *     5.8810 *     9.8017 *  0.0000     8          
   554  Cl    s     -1.5675 *    11.7620 *    11.7620    0.0000     4          
   555  Cl    s      2.3531 *    11.7620 *    11.7620    0.0000     4          
   556  O     s      0.3928 *     9.8017 *    13.7224 *  0.0000     8          
   557  Cl    s      6.2738 *     0.0000      15.6827 *  0.0000     4          
   558  Cl    s     -9.4089 *     7.8414 *    11.7620 *  0.0000     8          
   559  O     s      8.2341 *     5.8810 *    13.7224 *  0.0000     8          
   560  Cl    s     -5.4882 *     3.9207 *    15.6827 *  0.0000     8          
   561  O     s     -3.5279 *     9.8017 *    13.7224 *  0.0000     8          
   562  O     s     16.0755 *     5.8810 *    -1.9603 *  0.0000     8          
   563  Cl    s    -17.2503 *     0.0000       0.0000    0.0000     1          
   564  Cl    s    -13.3296 *     7.8414 *     7.8414    0.0000     4          
   565  Cl    s      6.2738 *     3.9207 *    15.6827 *  0.0000     8          
   566  O     s    -15.2899 *     5.8810 *     5.8810    0.0000     4          
   567  O     s      4.3135 *     9.8017 *    13.7224 *  0.0000     8          
   568  Cl    s     10.1945 *     7.8414 *    11.7620 *  0.0000     8          
   569  Cl    s     -5.4882 *    11.7620 *    11.7620    0.0000     4          
   570  Cl    s     -1.5675 *     7.8414 *    15.6827 *  0.0000     8          
   571  Cl    s    -17.2503 *     0.0000       3.9207 *  0.0000     4          
   572  Cl    s      2.3531 *     7.8414 *    15.6827 *  0.0000     8          
   573  O     s      0.3928 *    -1.9603 *    17.6430 *  0.0000     8          
   574  Cl    s    -13.3296 *     0.0000      11.7620 *  0.0000     4          
   575  Cl    s      6.2738 *    11.7620 *    11.7620    0.0000     4          
   576  O     s    -11.3692 *    -1.9603 *    13.7224 *  0.0000     8          
   577  O     s    -11.3692 *     9.8017 *     9.8017    0.0000     4          
   578  Cl    s     14.1152 *     7.8414 *     7.8414    0.0000     4          
   579  Cl    s     18.0358 *     0.0000       0.0000    0.0000     1          
   580  O     s     -3.5279 *    -1.9603 *    17.6430 *  0.0000     8          
   581  O     s     16.0755 *     5.8810 *     5.8810    0.0000     4          
   582  Cl    s    -17.2503 *     3.9207 *     3.9207    0.0000     4          
   583  Cl    s    -13.3296 *     3.9207 *    11.7620 *  0.0000     8          
   584  O     s    -15.2899 *    -1.9603 *     9.8017 *  0.0000     8          
   585  O     s      4.3135 *    -1.9603 *    17.6430 *  0.0000     8          
   586  Cl    s     -9.4089 *     0.0000      15.6827 *  0.0000     4          
   587  Cl    s     -5.4882 *     7.8414 *    15.6827 *  0.0000     8          
   588  Cl    s     14.1152 *     0.0000      11.7620 *  0.0000     4          
   589  O     s     -7.4486 *     9.8017 *    13.7224 *  0.0000     8          
   590  O     s     12.1548 *    -1.9603 *    13.7224 *  0.0000     8          
   591  O     s     12.1548 *     9.8017 *     9.8017    0.0000     4          
   592  Cl    s     18.0358 *     0.0000       3.9207 *  0.0000     4          
   593  O     s      0.3928 *     5.8810 *    17.6430 *  0.0000     8          
   594  Cl    s      6.2738 *     7.8414 *    15.6827 *  0.0000     8          
   595  Cl    s     -9.4089 *     3.9207 *    15.6827 *  0.0000     8          
   596  Cl    s     10.1945 *     0.0000      15.6827 *  0.0000     4          
   597  O     s    -11.3692 *     5.8810 *    13.7224 *  0.0000     8          
   598  O     s      8.2341 *     9.8017 *    13.7224 *  0.0000     8          
   599  Cl    s     14.1152 *     3.9207 *    11.7620 *  0.0000     8          
   600  Cl    s     18.0358 *     3.9207 *     3.9207    0.0000     4          
   601  O     s     -3.5279 *     5.8810 *    17.6430 *  0.0000     8          
   602  O     s     16.0755 *    -1.9603 *     9.8017 *  0.0000     8          
   603  Cl    s    -17.2503 *     0.0000       7.8414 *  0.0000     4          
   604  O     s    -15.2899 *     5.8810 *     9.8017 *  0.0000     8          
   605  O     s      4.3135 *     5.8810 *    17.6430 *  0.0000     8          
   606  Cl    s     -9.4089 *    11.7620 *    11.7620    0.0000     4          
   607  Cl    s     10.1945 *     3.9207 *    15.6827 *  0.0000     8          
   608  O     s     -7.4486 *    -1.9603 *    17.6430 *  0.0000     8          
   609  O     s     12.1548 *     5.8810 *    13.7224 *  0.0000     8          
   610  Cl    s    -17.2503 *     3.9207 *     7.8414 *  0.0000     8          
   611  O     s    -19.2106 *    -1.9603 *    -1.9603    0.0000     4          
   612  O     s      0.3928 *    13.7224 *    13.7224    0.0000     4          
   613  Cl    s    -13.3296 *     7.8414 *    11.7620 *  0.0000     8          
   614  Cl    s     10.1945 *    11.7620 *    11.7620    0.0000     4          
   615  O     s      8.2341 *    -1.9603 *    17.6430 *  0.0000     8          
   616  Cl    s     -1.5675 *    11.7620 *    15.6827 *  0.0000     8          
   617  Cl    s     -1.5675 *     0.0000      19.6034 *  0.0000     4          
   618  Cl    s     18.0358 *     0.0000       7.8414 *  0.0000     4          
   619  O     s     -3.5279 *    13.7224 *    13.7224    0.0000     4          
   620  O     s     16.0755 *     5.8810 *     9.8017 *  0.0000     8          
   621  Cl    s      2.3531 *    11.7620 *    15.6827 *  0.0000     8          
   622  Cl    s      2.3531 *     0.0000      19.6034 *  0.0000     4          
   623  O     s      4.3135 *    13.7224 *    13.7224    0.0000     4          
   624  Cl    s     -9.4089 *     7.8414 *    15.6827 *  0.0000     8          
   625  Cl    s     14.1152 *     7.8414 *    11.7620 *  0.0000     8          
--------------------------------------------------------------------------------


  Constraints on symmetry reduced coordinates :

--------------------------------------------------------------------------------
  Constraint no.      Unconstrained     Constrained    Coefficient    
                         Variable         Variable
--------------------------------------------------------------------------------
           1                 3 y             3 z         1.00000
           2                 4 y             4 z         1.00000
           3                 5 y             5 z         1.00000
           4                 9 y             9 z         1.00000
           5                12 y            12 z         1.00000
           6                15 y            15 z         1.00000
           7                17 y            17 z         1.00000
           8                18 y            18 z         1.00000
           9                26 y            26 z         1.00000
          10                33 y            33 z         1.00000
          11                35 y            35 z         1.00000
          12                41 y            41 z         1.00000
          13                42 y            42 z         1.00000
          14                43 y            43 z         1.00000
          15                46 y            46 z         1.00000
          16                47 y            47 z         1.00000
          17                51 y            51 z         1.00000
          18                55 y            55 z         1.00000
          19                60 y            60 z         1.00000
          20                63 y            63 z         1.00000
          21                76 y            76 z         1.00000
          22                78 y            78 z         1.00000
          23                85 y            85 z         1.00000
          24                89 y            89 z         1.00000
          25                90 y            90 z         1.00000
          26                92 y            92 z         1.00000
          27                99 y            99 z         1.00000
          28               101 y           101 z         1.00000
          29               102 y           102 z         1.00000
          30               115 y           115 z         1.00000
          31               118 y           118 z         1.00000
          32               120 y           120 z         1.00000
          33               125 y           125 z         1.00000
          34               139 y           139 z         1.00000
          35               148 y           148 z         1.00000
          36               156 y           156 z         1.00000
          37               161 y           161 z         1.00000
          38               164 y           164 z         1.00000
          39               166 y           166 z         1.00000
          40               174 y           174 z         1.00000
          41               177 y           177 z         1.00000
          42               178 y           178 z         1.00000
          43               181 y           181 z         1.00000
          44               182 y           182 z         1.00000
          45               188 y           188 z         1.00000
          46               191 y           191 z         1.00000
          47               199 y           199 z         1.00000
          48               204 y           204 z         1.00000
          49               206 y           206 z         1.00000
          50               216 y           216 z         1.00000
          51               223 y           223 z         1.00000
          52               226 y           226 z         1.00000
          53               242 y           242 z         1.00000
          54               249 y           249 z         1.00000
          55               254 y           254 z         1.00000
          56               264 y           264 z         1.00000
          57               266 y           266 z         1.00000
          58               268 y           268 z         1.00000
          59               283 y           283 z         1.00000
          60               290 y           290 z         1.00000
          61               294 y           294 z         1.00000
          62               297 y           297 z         1.00000
          63               301 y           301 z         1.00000
          64               312 y           312 z         1.00000
          65               320 y           320 z         1.00000
          66               321 y           321 z         1.00000
          67               330 y           330 z         1.00000
          68               331 y           331 z         1.00000
          69               338 y           338 z         1.00000
          70               351 y           351 z         1.00000
          71               373 y           373 z         1.00000
          72               382 y           382 z         1.00000
          73               384 y           384 z         1.00000
          74               387 y           387 z         1.00000
          75               397 y           397 z         1.00000
          76               398 y           398 z         1.00000
          77               402 y           402 z         1.00000
          78               404 y           404 z         1.00000
          79               407 y           407 z         1.00000
          80               418 y           418 z         1.00000
          81               425 y           425 z         1.00000
          82               428 y           428 z         1.00000
          83               429 y           429 z         1.00000
          84               437 y           437 z         1.00000
          85               439 y           439 z         1.00000
[...]
    545 y          0.000000      0.000000     0.000000    Cartesian    0.00
    545 z          7.841351      7.837584    -0.003767    Cartesian   -0.05
    546 x          0.000000      0.001144     0.001144    Cartesian *******
    546 y          3.920675      3.920642    -0.000033    Cartesian   -0.00
    546 z         15.682702     15.680650    -0.002052    Cartesian   -0.01
    547 x         17.643040     17.642028    -0.001011    Cartesian   -0.01
    547 y         -1.960338     -1.959971     0.000367    Cartesian   -0.02
    547 z         -1.960338     -1.959971     0.000367    Cartesian   -0.02
    548 x          3.920675      3.921844     0.001168    Cartesian    0.03
    548 y          3.920675      3.920958     0.000283    Cartesian    0.01
    548 z         15.682702     15.681206    -0.001496    Cartesian   -0.01
    549 x        -13.722364    -13.718076     0.004288    Cartesian   -0.03
    549 y          5.881013      5.878741    -0.002272    Cartesian   -0.04
    549 z         -1.960338     -1.959605     0.000733    Cartesian   -0.04
    550 x         -3.920675     -3.918160     0.002516    Cartesian   -0.06
    550 y          0.000000      0.000000     0.000000    Cartesian    0.00
    550 z         15.682702     15.679487    -0.003215    Cartesian   -0.02
    551 x         15.682702     15.678716    -0.003986    Cartesian   -0.03
    551 y          3.920675      3.918836    -0.001839    Cartesian   -0.05
    551 z          7.841351      7.837535    -0.003816    Cartesian   -0.05
    552 x         -5.881013     -5.879982     0.001031    Cartesian   -0.02
    552 y          5.881013      5.880011    -0.001002    Cartesian   -0.02
    552 z         13.722364     13.721315    -0.001049    Cartesian   -0.01
    553 x         13.722364     13.722281    -0.000083    Cartesian   -0.00
    553 y          5.881013      5.880330    -0.000684    Cartesian   -0.01
    553 z          9.801689      9.800913    -0.000775    Cartesian   -0.01
    554 x          0.000000      0.000301     0.000301    Cartesian *******
    554 y         11.762026     11.760550    -0.001476    Cartesian   -0.01
    554 z         11.762026     11.760550    -0.001476    Cartesian   -0.01
    555 x          3.920675      3.921644     0.000968    Cartesian    0.02
    555 y         11.762026     11.761151    -0.000876    Cartesian   -0.01
    555 z         11.762026     11.761151    -0.000876    Cartesian   -0.01
    556 x          1.960338      1.960782     0.000445    Cartesian    0.02
    556 y          9.801689      9.802753     0.001065    Cartesian    0.01
    556 z         13.722364     13.723733     0.001369    Cartesian    0.01
    557 x          7.841351      7.841440     0.000089    Cartesian    0.00
    557 y          0.000000      0.000000     0.000000    Cartesian    0.00
    557 z         15.682702     15.680960    -0.001742    Cartesian   -0.01
    558 x         -7.841351     -7.838325     0.003026    Cartesian   -0.04
    558 y          7.841351      7.838443    -0.002908    Cartesian   -0.04
    558 z         11.762026     11.758020    -0.004007    Cartesian   -0.03
    559 x          9.801689      9.803909     0.002220    Cartesian    0.02
    559 y          5.881013      5.881739     0.000726    Cartesian    0.01
    559 z         13.722364     13.723879     0.001514    Cartesian    0.01
    560 x         -3.920675     -3.919138     0.001538    Cartesian   -0.04
    560 y          3.920675      3.920165    -0.000510    Cartesian   -0.01
    560 z         15.682702     15.679959    -0.002743    Cartesian   -0.02
    561 x         -1.960338     -1.961177    -0.000839    Cartesian    0.04
    561 y          9.801689      9.802013     0.000324    Cartesian    0.00
    561 z         13.722364     13.723081     0.000717    Cartesian    0.01
    562 x         17.643040     17.642576    -0.000464    Cartesian   -0.00
    562 y          5.881013      5.880448    -0.000565    Cartesian   -0.01
    562 z         -1.960338     -1.960617    -0.000279    Cartesian    0.01
    563 x        -15.682702    -15.677193     0.005509    Cartesian   -0.04
    563 y          0.000000      0.000000     0.000000    Cartesian    0.00
    563 z          0.000000      0.000000     0.000000    Cartesian    0.00
    564 x        -11.762026    -11.756071     0.005956    Cartesian   -0.05
    564 y          7.841351      7.837732    -0.003619    Cartesian   -0.05
    564 z          7.841351      7.837732    -0.003619    Cartesian   -0.05
    565 x          7.841351      7.841942     0.000591    Cartesian    0.01
    565 y          3.920675      3.920773     0.000097    Cartesian    0.00
    565 z         15.682702     15.680951    -0.001750    Cartesian   -0.01
    566 x        -13.722364    -13.718812     0.003553    Cartesian   -0.03
    566 y          5.881013      5.879844    -0.001169    Cartesian   -0.02
    566 z          5.881013      5.879844    -0.001169    Cartesian   -0.02
    567 x          5.881013      5.882829     0.001816    Cartesian    0.03
    567 y          9.801689      9.803039     0.001350    Cartesian    0.01
    567 z         13.722364     13.723974     0.001610    Cartesian    0.01
    568 x         11.762026     11.762230     0.000204    Cartesian    0.00
    568 y          7.841351      7.839811    -0.001540    Cartesian   -0.02
    568 z         11.762026     11.760444    -0.001582    Cartesian   -0.01
    569 x         -3.920675     -3.920417     0.000258    Cartesian   -0.01
    569 y         11.762026     11.760300    -0.001726    Cartesian   -0.01
    569 z         11.762026     11.760300    -0.001726    Cartesian   -0.01
    570 x          0.000000      0.000468     0.000468    Cartesian *******
    570 y          7.841351      7.840990    -0.000361    Cartesian   -0.00
    570 z         15.682702     15.681115    -0.001587    Cartesian   -0.01
    571 x        -15.682702    -15.677967     0.004735    Cartesian   -0.03
    571 y          0.000000      0.000000     0.000000    Cartesian    0.00
    571 z          3.920675      3.920141    -0.000534    Cartesian   -0.01
    572 x          3.920675      3.921279     0.000603    Cartesian    0.02
    572 y          7.841351      7.841291    -0.000060    Cartesian   -0.00
    572 z         15.682702     15.681445    -0.001257    Cartesian   -0.01
    573 x          1.960338      1.960808     0.000471    Cartesian    0.02
    573 y         -1.960338     -1.961369    -0.001031    Cartesian    0.05
    573 z         17.643040     17.643562     0.000522    Cartesian    0.00
    574 x        -11.762026    -11.757674     0.004353    Cartesian   -0.04
    574 y          0.000000      0.000000     0.000000    Cartesian    0.00
    574 z         11.762026     11.758324    -0.003703    Cartesian   -0.03
    575 x          7.841351      7.842546     0.001195    Cartesian    0.02
    575 y         11.762026     11.761558    -0.000469    Cartesian   -0.00
    575 z         11.762026     11.761558    -0.000469    Cartesian   -0.00
    576 x         -9.801689     -9.800925     0.000764    Cartesian   -0.01
    576 y         -1.960338     -1.959943     0.000394    Cartesian   -0.02
    576 z         13.722364     13.721454    -0.000910    Cartesian   -0.01
    577 x         -9.801689     -9.800133     0.001555    Cartesian   -0.02
    577 y          9.801689      9.800154    -0.001535    Cartesian   -0.02
    577 z          9.801689      9.800154    -0.001535    Cartesian   -0.02
    578 x         15.682702     15.680073    -0.002629    Cartesian   -0.02
    578 y          7.841351      7.839034    -0.002317    Cartesian   -0.03
    578 z          7.841351      7.839034    -0.002317    Cartesian   -0.03
    579 x         19.603377     19.599554    -0.003824    Cartesian   -0.02
    579 y          0.000000      0.000000     0.000000    Cartesian    0.00
    579 z          0.000000      0.000000     0.000000    Cartesian    0.00
    580 x         -1.960338     -1.960190     0.000148    Cartesian   -0.01
    580 y         -1.960338     -1.960614    -0.000276    Cartesian    0.01
    580 z         17.643040     17.642560    -0.000480    Cartesian   -0.00
    581 x         17.643040     17.643059     0.000020    Cartesian    0.00
    581 y          5.881013      5.880681    -0.000332    Cartesian   -0.01
    581 z          5.881013      5.880681    -0.000332    Cartesian   -0.01
    582 x        -15.682702    -15.678121     0.004581    Cartesian   -0.03
    582 y          3.920675      3.919891    -0.000784    Cartesian   -0.02
    582 z          3.920675      3.919891    -0.000784    Cartesian   -0.02
    583 x        -11.762026    -11.758028     0.003999    Cartesian   -0.03
    583 y          3.920675      3.919110    -0.001566    Cartesian   -0.04
    583 z         11.762026     11.758345    -0.003681    Cartesian   -0.03
    584 x        -13.722364    -13.720473     0.001891    Cartesian   -0.01
    584 y         -1.960338     -1.959849     0.000489    Cartesian   -0.02
    584 z          9.801689      9.800640    -0.001049    Cartesian   -0.01
    585 x          5.881013      5.881726     0.000713    Cartesian    0.01
    585 y         -1.960338     -1.960814    -0.000476    Cartesian    0.02
    585 z         17.643040     17.643117     0.000077    Cartesian    0.00
    586 x         -7.841351     -7.839648     0.001703    Cartesian   -0.02
    586 y          0.000000      0.000000     0.000000    Cartesian    0.00
    586 z         15.682702     15.679519    -0.003183    Cartesian   -0.02
    587 x         -3.920675     -3.920063     0.000613    Cartesian   -0.02
    587 y          7.841351      7.840214    -0.001137    Cartesian   -0.01
    587 z         15.682702     15.680596    -0.002106    Cartesian   -0.01
    588 x         15.682702     15.681098    -0.001604    Cartesian   -0.01
    588 y          0.000000      0.000000     0.000000    Cartesian    0.00
    588 z         11.762026     11.759374    -0.002652    Cartesian   -0.02
    589 x         -5.881013     -5.881270    -0.000257    Cartesian    0.00
    589 y          9.801689      9.802049     0.000360    Cartesian    0.00
    589 z         13.722364     13.722571     0.000207    Cartesian    0.00
    590 x         13.722364     13.724248     0.001884    Cartesian    0.01
    590 y         -1.960338     -1.960278     0.000060    Cartesian   -0.00
    590 z         13.722364     13.723675     0.001311    Cartesian    0.01
    591 x         13.722364     13.723205     0.000841    Cartesian    0.01
    591 y          9.801689      9.801794     0.000105    Cartesian    0.00
    591 z          9.801689      9.801794     0.000105    Cartesian    0.00
    592 x         19.603377     19.599327    -0.004050    Cartesian   -0.02
    592 y          0.000000      0.000000     0.000000    Cartesian    0.00
    592 z          3.920675      3.919445    -0.001230    Cartesian   -0.03
    593 x          1.960338      1.960564     0.000226    Cartesian    0.01
    593 y          5.881013      5.881547     0.000534    Cartesian    0.01
    593 z         17.643040     17.643058     0.000018    Cartesian    0.00
    594 x          7.841351      7.842068     0.000717    Cartesian    0.01
    594 y          7.841351      7.841004    -0.000347    Cartesian   -0.00
    594 z         15.682702     15.680921    -0.001781    Cartesian   -0.01
    595 x         -7.841351     -7.839473     0.001878    Cartesian   -0.02
    595 y          3.920675      3.919743    -0.000932    Cartesian   -0.02
    595 z         15.682702     15.679398    -0.003304    Cartesian   -0.02
    596 x         11.762026     11.762068     0.000041    Cartesian    0.00
    596 y          0.000000      0.000000     0.000000    Cartesian    0.00
    596 z         15.682702     15.680853    -0.001849    Cartesian   -0.01
    597 x         -9.801689     -9.800568     0.001121    Cartesian   -0.01
    597 y          5.881013      5.879912    -0.001101    Cartesian   -0.02
    597 z         13.722364     13.720636    -0.001728    Cartesian   -0.01
    598 x          9.801689      9.803011     0.001322    Cartesian    0.01
    598 y          9.801689      9.802383     0.000695    Cartesian    0.01
    598 z         13.722364     13.723180     0.000816    Cartesian    0.01
    599 x         15.682702     15.680664    -0.002038    Cartesian   -0.01
    599 y          3.920675      3.919666    -0.001010    Cartesian   -0.03
    599 z         11.762026     11.759722    -0.002304    Cartesian   -0.02
    600 x         19.603377     19.599070    -0.004307    Cartesian   -0.02
    600 y          3.920675      3.919372    -0.001304    Cartesian   -0.03
    600 z          3.920675      3.919372    -0.001304    Cartesian   -0.03
    601 x         -1.960338     -1.960304     0.000033    Cartesian   -0.00
    601 y          5.881013      5.881142     0.000129    Cartesian    0.00
    601 z         17.643040     17.642807    -0.000233    Cartesian   -0.00
    602 x         17.643040     17.641747    -0.001293    Cartesian   -0.01
    602 y         -1.960338     -1.960197     0.000140    Cartesian   -0.01
    602 z          9.801689      9.800413    -0.001276    Cartesian   -0.01
    603 x        -15.682702    -15.677448     0.005254    Cartesian   -0.03
    603 y          0.000000      0.000000     0.000000    Cartesian    0.00
    603 z          7.841351      7.838718    -0.002633    Cartesian   -0.03
    604 x        -13.722364    -13.720070     0.002294    Cartesian   -0.02
    604 y          5.881013      5.880061    -0.000952    Cartesian   -0.02
    604 z          9.801689      9.799998    -0.001691    Cartesian   -0.02
    605 x          5.881013      5.881465     0.000452    Cartesian    0.01
    605 y          5.881013      5.881448     0.000434    Cartesian    0.01
    605 z         17.643040     17.643262     0.000223    Cartesian    0.00
    606 x         -7.841351     -7.840004     0.001347    Cartesian   -0.02
    606 y         11.762026     11.759291    -0.002736    Cartesian   -0.02
    606 z         11.762026     11.759291    -0.002736    Cartesian   -0.02
    607 x         11.762026     11.761695    -0.000332    Cartesian   -0.00
    607 y          3.920675      3.920239    -0.000437    Cartesian   -0.01
    607 z         15.682702     15.680269    -0.002433    Cartesian   -0.02
    608 x         -5.881013     -5.880128     0.000885    Cartesian   -0.02
    608 y         -1.960338     -1.960245     0.000093    Cartesian   -0.00
    608 z         17.643040     17.641507    -0.001533    Cartesian   -0.01
    609 x         13.722364     13.722237    -0.000127    Cartesian   -0.00
    609 y          5.881013      5.880720    -0.000294    Cartesian   -0.00
    609 z         13.722364     13.721859    -0.000505    Cartesian   -0.00
    610 x        -15.682702    -15.676885     0.005817    Cartesian   -0.04
    610 y          3.920675      3.919348    -0.001327    Cartesian   -0.03
    610 z          7.841351      7.838648    -0.002703    Cartesian   -0.03
    611 x        -17.643040    -17.641331     0.001708    Cartesian   -0.01
    611 y         -1.960338     -1.960301     0.000037    Cartesian   -0.00
    611 z         -1.960338     -1.960301     0.000037    Cartesian   -0.00
    612 x          1.960338      1.960368     0.000030    Cartesian    0.00
    612 y         13.722364     13.721917    -0.000447    Cartesian   -0.00
    612 z         13.722364     13.721917    -0.000447    Cartesian   -0.00
    613 x        -11.762026    -11.757735     0.004292    Cartesian   -0.04
    613 y          7.841351      7.838683    -0.002668    Cartesian   -0.03
    613 z         11.762026     11.758041    -0.003985    Cartesian   -0.03
    614 x         11.762026     11.762106     0.000080    Cartesian    0.00
    614 y         11.762026     11.760534    -0.001493    Cartesian   -0.01
    614 z         11.762026     11.760534    -0.001493    Cartesian   -0.01
    615 x          9.801689      9.801345    -0.000343    Cartesian   -0.00
    615 y         -1.960338     -1.960367    -0.000030    Cartesian    0.00
    615 z         17.643040     17.642171    -0.000869    Cartesian   -0.00
    616 x          0.000000      0.000638     0.000638    Cartesian *******
    616 y         11.762026     11.759571    -0.002455    Cartesian   -0.02
    616 z         15.682702     15.679037    -0.003664    Cartesian   -0.02
    617 x          0.000000      0.000791     0.000791    Cartesian *******
    617 y          0.000000      0.000000     0.000000    Cartesian    0.00
    617 z         19.603377     19.597440    -0.005937    Cartesian   -0.03
    618 x         19.603377     19.597769    -0.005608    Cartesian   -0.03
    618 y          0.000000      0.000000     0.000000    Cartesian    0.00
    618 z          7.841351      7.838700    -0.002651    Cartesian   -0.03
    619 x         -1.960338     -1.959718     0.000619    Cartesian   -0.03
    619 y         13.722364     13.720853    -0.001511    Cartesian   -0.01
    619 z         13.722364     13.720853    -0.001511    Cartesian   -0.01
    620 x         17.643040     17.641000    -0.002040    Cartesian   -0.01
    620 y          5.881013      5.879867    -0.001146    Cartesian   -0.02
    620 z          9.801689      9.800043    -0.001646    Cartesian   -0.02
    621 x          3.920675      3.920294    -0.000382    Cartesian   -0.01
    621 y         11.762026     11.759788    -0.002238    Cartesian   -0.02
    621 z         15.682702     15.679201    -0.003501    Cartesian   -0.02
    622 x          3.920675      3.920430    -0.000245    Cartesian   -0.01
    622 y          0.000000      0.000000     0.000000    Cartesian    0.00
    622 z         19.603377     19.597442    -0.005936    Cartesian   -0.03
    623 x          5.881013      5.880439    -0.000574    Cartesian   -0.01
    623 y         13.722364     13.721160    -0.001204    Cartesian   -0.01
    623 z         13.722364     13.721160    -0.001204    Cartesian   -0.01
    624 x         -7.841351     -7.839063     0.002288    Cartesian   -0.03
    624 y          7.841351      7.838950    -0.002401    Cartesian   -0.03
    624 z         15.682702     15.677621    -0.005081    Cartesian   -0.03
    625 x         15.682702     15.679456    -0.003246    Cartesian   -0.02
    625 y          7.841351      7.839154    -0.002196    Cartesian   -0.03
    625 z         11.762026     11.758747    -0.003280    Cartesian   -0.03
--------------------------------------------------------------------------------


  Time to end of optimisation  =       95.6265 seconds


  Peak dynamic memory used =    1737.46 MB 


  Timing analysis for GULP :

--------------------------------------------------------------------------------
  Task / Subroutine                                          Time (Seconds)
--------------------------------------------------------------------------------
  Calculation of reciprocal space energy and derivatives          0.0003
  Calculation of reciprocal space energy using symmetry           0.0003
  Calculation of real space energy and derivatives                0.0017
  Calculation of real space energy using symmetry                 0.0036
  Calculation for region 1 energy and derivatives (2-b)          53.2014
  Calculation for region 2a energy                               13.8784
  Calculation for region 2b energy                                0.0021
  Calculation and manipulation of Hessian matrix                 25.5981
  Calculation of matrix inversion                                 2.0712
  Symmetry generation of equivalent positions                     0.0017
--------------------------------------------------------------------------------
  Total CPU time                                                 95.6265
--------------------------------------------------------------------------------


  Dump file written as Li3OCl.grs


  Job Finished at 13:14.33 21st October    2020                               

