********************************************************************************
*                       GENERAL UTILITY LATTICE PROGRAM                        *
*                                 Julian Gale                                  *
*                       Curtin Institute for Computation                       *
*                    School of Molecular and Life Sciences                     *
*                    Curtin University, Western Australia                      *
********************************************************************************
* Version = 5.2.0 * Last modified =  10th September 2020                       *
********************************************************************************
*  optimise     - perform optimisation run                                     *
*  conp         - constant pressure calculation                                *
*  property     - calculate properties for final geometry                      *
*  defect       - perform defect calculation after bulk run                    *
*  compare      - compare initial and final structures                         *
********************************************************************************

  Job Started  at 17:34.06 20th October    2020                               

  Number of CPUs =     1


  Total number of configurations input =      1

********************************************************************************
*  Input for Configuration =   1                                               *
********************************************************************************

  Formula = ClOLi3                                                      

  Number of irreducible atoms/shells =       5


  Total number atoms/shells =       7

  Dimensionality = 3               :  Bulk   


  Symmetry :

  Crystal family                   :  Cubic       
  Crystal class  (Groth - 1921)    :  Cubic Hexakisoctahedral              

  Space group (centrosymmetric)    :  P M 3 M         

  Patterson group                  :  P m -3 m 

  Cartesian lattice vectors (Angstroms) :

        3.918873    0.000000    0.000000
        0.000000    3.918873    0.000000
        0.000000    0.000000    3.918873

  Cell parameters (Angstroms/Degrees):

  a =       3.9189    alpha =  90.0000
  b =       3.9189    beta  =  90.0000
  c =       3.9189    gamma =  90.0000

  Initial cell volume =          60.184349 Angs**3

  Temperature of configuration =   0.00     K 

  Pressure of configuration =         0.000 GPa 

  Fractional coordinates of asymmetric unit :

--------------------------------------------------------------------------------
   No.  Atomic       x           y          z         Charge      Occupancy
        Label      (Frac)      (Frac)     (Frac)        (e)         (Frac)  
--------------------------------------------------------------------------------
      1 Cl    c    0.000000    0.000000    0.000000     1.48500    1.000000    
      2 O     c    0.500000    0.500000    0.500000     0.18300    1.000000    
      3 Li    c    0.500000    0.500000    0.000000     1.00000    1.000000    
      4 Cl    s    0.000000    0.000000    0.000000    -2.48500    1.000000    
      5 O     s    0.500000    0.500000    0.500000    -2.18300    1.000000    
--------------------------------------------------------------------------------


  Constraints : 

--------------------------------------------------------------------------------
  Constraint no.      Unconstrained     Constrained    Coefficient    Offset
                         Variable         Variable
--------------------------------------------------------------------------------
           1              Strain 1        Strain 2       1.00000      0.0000
           2              Strain 1        Strain 3       1.00000      0.0000
--------------------------------------------------------------------------------


********************************************************************************
*  General input information                                                   *
********************************************************************************

  Species output for all configurations : 

--------------------------------------------------------------------------------
  Species    Type    Atomic    Atomic    Charge       Radii (Angs)     Library
                     Number     Mass       (e)     Cova   Ionic  VDW   Symbol
--------------------------------------------------------------------------------
    Li       Core        3       6.94   1.000000   0.680  0.000  1.800          
    O        Core        8      16.00   0.183000   0.730  0.000  1.360          
    O        Shell       8       0.00  -2.183000   0.730  0.000  1.360          
    Cl       Core       17      35.45   1.485000   0.990  0.000  1.650          
    Cl       Shell      17       0.00  -2.485000   0.990  0.000  1.650          
--------------------------------------------------------------------------------


  Lattice summation method               =    Ewald          (3-D)
                                         =    Parry          (2-D)
                                         =    Saunders et al (1-D)
  Accuracy factor for lattice sums       =   12.000


  Analytic derivatives to be used

  Time limit = Infinity

  Maximum range for interatomic potentials =    100000.000000 Angstroms

  General interatomic potentials :

--------------------------------------------------------------------------------
Atom  Types   Potential      Parameter       Value         Units   Cutoffs(Ang)
  1     2                                                            Min /  Max 
--------------------------------------------------------------------------------
O    c O    s Spring (c-s)  Spring k 2       593.72000    eV*Ang^-2 0.000  0.800
                            Spring k 4       0.0000000    eV*Ang^-4 
--------------------------------------------------------------------------------
Cl   c Cl   s Spring (c-s)  Spring k 2       29.380000    eV*Ang^-2 0.000  0.800
                            Spring k 4       0.0000000    eV*Ang^-4 
--------------------------------------------------------------------------------
Li   c Li   c Buckingham    Buckingham A     360.53000    eV        0.000 12.000
                            Buckingham rho  0.16100000    Ang       
                            Buckingham C     0.0000000    eV*Ang^6  
--------------------------------------------------------------------------------
Li   c O    s Buckingham    Buckingham A     292.30000    eV        0.000 12.000
                            Buckingham rho  0.34720000    Ang       
                            Buckingham C     0.0000000    eV*Ang^6  
--------------------------------------------------------------------------------
Li   c Cl   s Buckingham    Buckingham A     421.04000    eV        0.000 12.000
                            Buckingham rho  0.33400000    Ang       
                            Buckingham C     0.0000000    eV*Ang^6  
--------------------------------------------------------------------------------
O    s O    s Buckingham    Buckingham A     22764.300    eV        0.000 12.000
                            Buckingham rho  0.14900000    Ang       
                            Buckingham C     13.190000    eV*Ang^6  
--------------------------------------------------------------------------------
O    s Cl   s Buckingham    Buckingham A     8286.9100    eV        0.000 12.000
                            Buckingham rho  0.25900000    Ang       
                            Buckingham C     62.200000    eV*Ang^6  
--------------------------------------------------------------------------------
Cl   s Cl   s Buckingham    Buckingham A     1227.2000    eV        0.000 12.000
                            Buckingham rho  0.32100000    Ang       
                            Buckingham C     14.530000    eV*Ang^6  
--------------------------------------------------------------------------------

********************************************************************************
*  Output for configuration   1                                                *
********************************************************************************


  Components of energy : 

--------------------------------------------------------------------------------
  Interatomic potentials     =           7.26836263 eV    
  Monopole - monopole (real) =         -11.53475722 eV    
  Monopole - monopole (recip)=         -33.94580548 eV    
  Monopole - monopole (total)=         -45.48056271 eV    
--------------------------------------------------------------------------------
  Total lattice energy       =         -38.21220008 eV    
--------------------------------------------------------------------------------
  Total lattice energy       =           -3686.8932 kJ/(mole unit cells)
--------------------------------------------------------------------------------


  Number of variables =        1

  Maximum number of calculations  =          1000
  Maximum Hessian update interval =            10
  Maximum step size               =   1.000000000
  Maximum parameter tolerance     =   0.000010000
  Maximum function  tolerance     =   0.000010000
  Maximum gradient  tolerance     =   0.001000000
  Maximum gradient  component     =   0.010000000

  Symmetry constrained optimisation

  Symmetry used for second derivatives

  Cell parameters to be optimised using strains

  Newton-Raphson optimiser to be used

  BFGS hessian update to be used

  Lower half triangular hessian to be used

  Start of bulk optimisation :

  Cycle:      0 Energy:       -38.212200  Gnorm:      0.095699  CPU:    0.012
  ** Hessian calculated **
  Cycle:      1 Energy:       -38.212222  Gnorm:      0.000105  CPU:    0.014


  **** Optimisation achieved ****


  Final energy =     -38.21222207 eV
  Final Gnorm  =       0.00000016

  Components of energy : 

--------------------------------------------------------------------------------
  Interatomic potentials     =           7.24743141 eV    
  Monopole - monopole (real) =         -11.52945423 eV    
  Monopole - monopole (recip)=         -33.93019924 eV    
  Monopole - monopole (total)=         -45.45965348 eV    
--------------------------------------------------------------------------------
  Total lattice energy       =         -38.21222207 eV    
--------------------------------------------------------------------------------
  Total lattice energy       =           -3686.8953 kJ/(mole unit cells)
--------------------------------------------------------------------------------

  Final asymmetric unit coordinates :

--------------------------------------------------------------------------------
   No.  Atomic        x           y           z         Radius
        Label       (Frac)      (Frac)      (Frac)       (Angs) 
--------------------------------------------------------------------------------
     1  Cl    c     0.000000    0.000000    0.000000    0.000000
     2  O     c     0.500000    0.500000    0.500000    0.000000
     3  Li    c     0.500000    0.500000    0.000000    0.000000
     4  Cl    s     0.000000    0.000000    0.000000    0.000000
     5  O     s     0.500000    0.500000    0.500000    0.000000
--------------------------------------------------------------------------------

  Final Cartesian lattice vectors (Angstroms) :

        3.920675    0.000000    0.000000
        0.000000    3.920675    0.000000
        0.000000    0.000000    3.920675


  Final cell parameters and derivatives :

--------------------------------------------------------------------------------
       a            3.920675 Angstrom     dE/de1(xx)    -0.000000 eV/strain
       b            3.920675 Angstrom     dE/de2(yy)     0.000000 eV/strain
       c            3.920675 Angstrom     dE/de3(zz)     0.000000 eV/strain
       alpha       90.000000 Degrees      dE/de4(yz)     0.000000 eV/strain
       beta        90.000000 Degrees      dE/de5(xz)     0.000000 eV/strain
       gamma       90.000000 Degrees      dE/de6(xy)     0.000000 eV/strain
--------------------------------------------------------------------------------

  Primitive cell volume =            60.267433 Angs**3

  Density of cell =      1.991276 g/cm**3

  Non-primitive cell volume =            60.267433 Angs**3


  Final internal derivatives :

--------------------------------------------------------------------------------
   No.  Atomic          a             b             c           Radius
        Label          (eV)          (eV)          (eV)        (eV/Angs)
--------------------------------------------------------------------------------
      1 Cl    c       0.000000      0.000000      0.000000      0.000000
      2 O     c       0.000000      0.000000      0.000000      0.000000
      3 Li    c       0.000000      0.000000      0.000000      0.000000
      4 Cl    s       0.000000      0.000000      0.000000      0.000000
      5 O     s       0.000000      0.000000      0.000000      0.000000
--------------------------------------------------------------------------------
  Maximum abs         0.000000      0.000000      0.000000      0.000000
--------------------------------------------------------------------------------

  Comparison of initial and final structures : 

--------------------------------------------------------------------------------
  Parameter   Initial value   Final value   Difference    Units      Percent
--------------------------------------------------------------------------------
    Volume        60.184349     60.267433     0.083084    Angs**3      0.14
    a              3.918873      3.920675     0.001802    Angstroms    0.05
    b              3.918873      3.920675     0.001802    Angstroms    0.05
    c              3.918873      3.920675     0.001802    Angstroms    0.05
    alpha         90.000000     90.000000     0.000000    Degrees      0.00
    beta          90.000000     90.000000     0.000000    Degrees      0.00
    gamma         90.000000     90.000000     0.000000    Degrees      0.00
      1 x          0.000000      0.000000     0.000000    Fractional   0.00
      1 y          0.000000      0.000000     0.000000    Fractional   0.00
      1 z          0.000000      0.000000     0.000000    Fractional   0.00
      2 x          0.500000      0.500000     0.000000    Fractional   0.00
      2 y          0.500000      0.500000     0.000000    Fractional   0.00
      2 z          0.500000      0.500000     0.000000    Fractional   0.00
      3 x          0.500000      0.500000     0.000000    Fractional   0.00
      3 y          0.500000      0.500000     0.000000    Fractional   0.00
      3 z          0.000000      0.000000     0.000000    Fractional   0.00
      4 x          0.000000      0.000000     0.000000    Fractional   0.00
      4 y          0.000000      0.000000     0.000000    Fractional   0.00
      4 z          0.000000      0.000000     0.000000    Fractional   0.00
      5 x          0.500000      0.500000     0.000000    Fractional   0.00
      5 y          0.500000      0.500000     0.000000    Fractional   0.00
      5 z          0.500000      0.500000     0.000000    Fractional   0.00
--------------------------------------------------------------------------------


  Born effective charge tensors : 

-------------------------------------------------------------------------------
  Atom             x           y             z
-------------------------------------------------------------------------------
    1 Cl    x      -0.9489     -0.0000     -0.0000
            y      -0.0000     -0.9489     -0.0000
            z      -0.0000     -0.0000     -0.9489
-------------------------------------------------------------------------------
    2 O     x      -2.4688      0.0000      0.0000
            y       0.0000     -2.4688      0.0000
            z       0.0000      0.0000     -2.4688
-------------------------------------------------------------------------------
    3 Li    x       1.3129      0.0000     -0.0000
            y       0.0000      1.3129      0.0000
            z      -0.0000      0.0000      0.7919
-------------------------------------------------------------------------------




  Elastic Constant Matrix: (Units=GPa)

-------------------------------------------------------------------------------
  Indices      1         2         3         4         5         6    
-------------------------------------------------------------------------------
       1     94.3368   44.9178   44.9178    0.0000   -0.0000    0.0000
       2     44.9178   94.3368   44.9178   -0.0000    0.0000   -0.0000
       3     44.9178   44.9178   94.3368    0.0000   -0.0000    0.0000
       4      0.0000   -0.0000    0.0000   44.9178   -0.0000    0.0000
       5     -0.0000    0.0000   -0.0000   -0.0000   44.9178    0.0000
       6      0.0000   -0.0000    0.0000    0.0000    0.0000   44.9178
-------------------------------------------------------------------------------


  Elastic Compliance Matrix: (Units=1/GPa)

-------------------------------------------------------------------------------
  Indices      1         2         3         4         5         6    
-------------------------------------------------------------------------------
       1    0.015300 -0.004935 -0.004935 -0.000000  0.000000 -0.000000
       2   -0.004935  0.015300 -0.004935  0.000000 -0.000000  0.000000
       3   -0.004935 -0.004935  0.015300 -0.000000  0.000000 -0.000000
       4   -0.000000  0.000000 -0.000000  0.022263  0.000000 -0.000000
       5    0.000000 -0.000000  0.000000  0.000000  0.022263 -0.000000
       6   -0.000000  0.000000 -0.000000 -0.000000 -0.000000  0.022263
-------------------------------------------------------------------------------

  Mechanical properties :

-------------------------------------------------------------------------------
  Convention :                    Reuss         Voigt         Hill
-------------------------------------------------------------------------------
  Bulk  Modulus (GPa)     =      61.39080      61.39080      61.39080
  Shear Modulus (GPa)     =      33.84570      36.83448      35.34009
-------------------------------------------------------------------------------
  Velocity S-wave (km/s)  =       4.12274       4.30092       4.21277
  Velocity P-wave (km/s)  =       7.31386       7.44942       7.38195
-------------------------------------------------------------------------------
  Compressibility (1/GPa) =    0.01628909
-------------------------------------------------------------------------------
  Stress axis :                     x             y             z
-------------------------------------------------------------------------------
  Youngs Moduli (GPa)     =      65.35947      65.35947      65.35947
-------------------------------------------------------------------------------
  Poissons Ratio (x)      =                     0.32256       0.32256
  Poissons Ratio (y)      =       0.32256                     0.32256
  Poissons Ratio (z)      =       0.32256       0.32256
-------------------------------------------------------------------------------


  Piezoelectric Strain Matrix: (Units=C/m**2)

-------------------------------------------------------------------------------
  Indices      1         2         3         4         5         6    
-------------------------------------------------------------------------------
       x    -0.00000   0.00000   0.00000  -0.00000  -0.00000   0.00000
       y    -0.00000   0.00000   0.00000  -0.00000  -0.00000  -0.00000
       z     0.00000   0.00000   0.00000   0.00000  -0.00000  -0.00000
-------------------------------------------------------------------------------


  Piezoelectric Stress Matrix: (Units=10**-11 C/N)

-------------------------------------------------------------------------------
  Indices      1         2         3         4         5         6    
-------------------------------------------------------------------------------
       x    -0.00000   0.00000   0.00000  -0.00000  -0.00000   0.00000
       y    -0.00000   0.00000   0.00000  -0.00000  -0.00000  -0.00000
       z    -0.00000  -0.00000   0.00000   0.00000  -0.00000  -0.00000
-------------------------------------------------------------------------------


  Static dielectric constant tensor : 

-------------------------------------------------------------------------------
              x         y         z
-------------------------------------------------------------------------------
       x    12.11703   0.00000  -0.00000
       y     0.00000  12.11703  -0.00000
       z    -0.00000  -0.00000  12.11703
--------------------------------------------------------------------------------

  High frequency dielectric constant tensor : 

-------------------------------------------------------------------------------
              x         y         z
-------------------------------------------------------------------------------
       x     1.74104   0.00000   0.00000
       y     0.00000   1.74104   0.00000
       z     0.00000   0.00000   1.74104
-------------------------------------------------------------------------------

  Static refractive indices : 

-------------------------------------------------------------------------------
    1 =    3.48095      2 =    3.48095      3 =    3.48095
-------------------------------------------------------------------------------

  High frequency refractive indices : 

-------------------------------------------------------------------------------
    1 =    1.31948      2 =    1.31948      3 =    1.31948
-------------------------------------------------------------------------------


  Time to end of optimisation =       0.0202 seconds

********************************************************************************
*  Defect calculation for configuration   1 :                                  *
********************************************************************************

  Total number of defects =      3

  Total charge on defect  =   1.00

  Defect centre is at   0.0000   0.0000   0.0000  Angs

  Region 1 radius =  20.0000      Number of ions =   3932

  Number of symmetry inequivalent region 1 ions  =    636

  Region 2 radius =  24.0000      Number of ions =   2756

  Number of symmetry inequivalent region 2a ions =    403

  Region 2a mode = 4 : screened electrostatics due to region 1 
                       neglect correction to region 1 forces from 2a
                       region 2a displacements based on defects only

  Region 2a ions will only interact with defects in region 1

  Vacancies:

--------------------------------------------------------------------------------
    Specification type     Symbol/Number         x          y          z
--------------------------------------------------------------------------------
    Cartesian                                0.000000   0.000000   0.000000
    Cartesian                                3.918873   0.000000   0.000000
--------------------------------------------------------------------------------

  Interstitials:

--------------------------------------------------------------------------------
    Specification type     Symbol/Number         x          y          z
--------------------------------------------------------------------------------
    Atom/Fractional         Cl               0.000000   0.000000   0.000000
--------------------------------------------------------------------------------


  Symmetry reduced region 1 (Relative to defect centre) :

--------------------------------------------------------------------------------
   No.   Atomic       x            y             z       Radius  Multiplicity   
         Label      (Angs)       (Angs)        (Angs)    (Angs)     
--------------------------------------------------------------------------------
     1  Cl    c      0.0000       0.0000       0.0000    0.0000     1          
     2  Li    c     -1.9603 *    -1.9603 *     0.0000    0.0000     4          
     3  Li    c      1.9603 *    -1.9603 *     0.0000    0.0000     4          
     4  Li    c      0.0000 *    -1.9603 *    -1.9603    0.0000     4          
     5  O     c     -1.9603 *    -1.9603 *    -1.9603    0.0000     4          
     6  O     c      1.9603 *    -1.9603 *    -1.9603    0.0000     4          
     7  Cl    c      0.0000 *     0.0000       3.9207 *  0.0000     4          
     8  Cl    c     -3.9207 *     0.0000       0.0000    0.0000     1          
     9  Li    c     -1.9603 *    -1.9603 *     3.9207 *  0.0000     8          
    10  Li    c      1.9603 *    -1.9603 *     3.9207 *  0.0000     8          
    11  Li    c      3.9207 *    -1.9603 *    -1.9603    0.0000     4          
    12  Li    c     -3.9207 *    -1.9603 *    -1.9603    0.0000     4          
    13  Cl    c      0.0000 *     3.9207 *     3.9207    0.0000     4          
    14  Cl    c      3.9207 *     0.0000       3.9207 *  0.0000     4          
    15  Cl    c     -3.9207 *     0.0000       3.9207 *  0.0000     4          
    16  Li    c     -1.9603 *     5.8810 *     0.0000    0.0000     4          
    17  Li    c      1.9603 *     5.8810 *     0.0000    0.0000     4          
    18  Li    c      5.8810 *    -1.9603 *     0.0000    0.0000     4          
    19  Li    c     -5.8810 *    -1.9603 *     0.0000    0.0000     4          
    20  Li    c      0.0000 *    -1.9603 *     5.8810 *  0.0000     8          
    21  O     c     -1.9603 *     5.8810 *    -1.9603 *  0.0000     8          
    22  O     c      1.9603 *     5.8810 *    -1.9603 *  0.0000     8          
    23  O     c      5.8810 *    -1.9603 *    -1.9603    0.0000     4          
    24  O     c     -5.8810 *    -1.9603 *    -1.9603    0.0000     4          
    25  Cl    c      3.9207 *     3.9207 *     3.9207    0.0000     4          
    26  Cl    c     -3.9207 *     3.9207 *     3.9207    0.0000     4          
    27  Li    c     -1.9603 *     5.8810 *     3.9207 *  0.0000     8          
    28  Li    c      1.9603 *     5.8810 *     3.9207 *  0.0000     8          
    29  Li    c      5.8810 *    -1.9603 *     3.9207 *  0.0000     8          
    30  Li    c     -5.8810 *    -1.9603 *     3.9207 *  0.0000     8          
    31  Li    c      3.9207 *    -1.9603 *     5.8810 *  0.0000     8          
    32  Li    c     -3.9207 *    -1.9603 *     5.8810 *  0.0000     8          
    33  Cl    c      0.0000 *     0.0000       7.8414 *  0.0000     4          
    34  Cl    c      7.8414 *     0.0000       0.0000    0.0000     1          
    35  Cl    c     -7.8414 *     0.0000       0.0000    0.0000     1          
    36  Li    c     -1.9603 *    -1.9603 *     7.8414 *  0.0000     8          
    37  Li    c      1.9603 *    -1.9603 *     7.8414 *  0.0000     8          
    38  Li    c      5.8810 *     5.8810 *     0.0000    0.0000     4          
    39  Li    c     -5.8810 *     5.8810 *     0.0000    0.0000     4          
    40  Li    c      0.0000 *     5.8810 *     5.8810    0.0000     4          
    41  Li    c      7.8414 *    -1.9603 *    -1.9603    0.0000     4          
    42  Li    c     -7.8414 *    -1.9603 *    -1.9603    0.0000     4          
    43  O     c     -1.9603 *     5.8810 *     5.8810    0.0000     4          
    44  O     c      1.9603 *     5.8810 *     5.8810    0.0000     4          
    45  O     c      5.8810 *    -1.9603 *     5.8810 *  0.0000     8          
    46  O     c     -5.8810 *    -1.9603 *     5.8810 *  0.0000     8          
    47  Cl    c      0.0000 *     3.9207 *     7.8414 *  0.0000     8          
    48  Cl    c      3.9207 *     0.0000       7.8414 *  0.0000     4          
    49  Cl    c      7.8414 *     0.0000       3.9207 *  0.0000     4          
    50  Cl    c     -3.9207 *     0.0000       7.8414 *  0.0000     4          
    51  Cl    c     -7.8414 *     0.0000       3.9207 *  0.0000     4          
    52  Li    c      3.9207 *     5.8810 *     5.8810    0.0000     4          
    53  Li    c     -3.9207 *     5.8810 *     5.8810    0.0000     4          
    54  Li    c      5.8810 *     3.9207 *     5.8810 *  0.0000     8          
    55  Li    c     -5.8810 *     3.9207 *     5.8810 *  0.0000     8          
    56  Cl    c      3.9207 *     3.9207 *     7.8414 *  0.0000     8          
    57  Cl    c      7.8414 *     3.9207 *     3.9207    0.0000     4          
    58  Cl    c     -3.9207 *     3.9207 *     7.8414 *  0.0000     8          
    59  Cl    c     -7.8414 *     3.9207 *     3.9207    0.0000     4          
    60  Li    c     -1.9603 *     5.8810 *     7.8414 *  0.0000     8          
    61  Li    c      1.9603 *     5.8810 *     7.8414 *  0.0000     8          
    62  Li    c      5.8810 *    -1.9603 *     7.8414 *  0.0000     8          
    63  Li    c     -5.8810 *    -1.9603 *     7.8414 *  0.0000     8          
    64  Li    c      7.8414 *    -1.9603 *     5.8810 *  0.0000     8          
    65  Li    c     -7.8414 *    -1.9603 *     5.8810 *  0.0000     8          
    66  Li    c     -1.9603 *     9.8017 *     0.0000    0.0000     4          
    67  Li    c      1.9603 *     9.8017 *     0.0000    0.0000     4          
    68  Li    c      9.8017 *    -1.9603 *     0.0000    0.0000     4          
    69  Li    c     -9.8017 *    -1.9603 *     0.0000    0.0000     4          
    70  Li    c      0.0000 *    -1.9603 *     9.8017 *  0.0000     8          
    71  O     c      5.8810 *     5.8810 *     5.8810    0.0000     4          
    72  O     c     -5.8810 *     5.8810 *     5.8810    0.0000     4          
    73  O     c     -1.9603 *    -1.9603 *     9.8017 *  0.0000     8          
    74  O     c      1.9603 *    -1.9603 *     9.8017 *  0.0000     8          
    75  O     c      9.8017 *    -1.9603 *    -1.9603    0.0000     4          
    76  O     c     -9.8017 *    -1.9603 *    -1.9603    0.0000     4          
    77  Li    c      3.9207 *    -1.9603 *     9.8017 *  0.0000     8          
    78  Li    c     -3.9207 *    -1.9603 *     9.8017 *  0.0000     8          
    79  Li    c     -1.9603 *     3.9207 *     9.8017 *  0.0000     8          
    80  Li    c      1.9603 *     3.9207 *     9.8017 *  0.0000     8          
    81  Li    c      9.8017 *    -1.9603 *     3.9207 *  0.0000     8          
    82  Li    c     -9.8017 *    -1.9603 *     3.9207 *  0.0000     8          
    83  Cl    c      0.0000 *     7.8414 *     7.8414    0.0000     4          
    84  Cl    c      7.8414 *     0.0000       7.8414 *  0.0000     4          
    85  Cl    c     -7.8414 *     0.0000       7.8414 *  0.0000     4          
    86  Li    c      5.8810 *     5.8810 *     7.8414 *  0.0000     8          
    87  Li    c     -5.8810 *     5.8810 *     7.8414 *  0.0000     8          
    88  Li    c      7.8414 *     5.8810 *     5.8810    0.0000     4          
    89  Li    c     -7.8414 *     5.8810 *     5.8810    0.0000     4          
    90  Li    c      5.8810 *     9.8017 *     0.0000    0.0000     4          
    91  Li    c      9.8017 *     5.8810 *     0.0000    0.0000     4          
    92  Li    c     -5.8810 *     9.8017 *     0.0000    0.0000     4          
    93  Li    c     -9.8017 *     5.8810 *     0.0000    0.0000     4          
    94  Li    c      0.0000 *     5.8810 *     9.8017 *  0.0000     8          
    95  O     c     -1.9603 *     5.8810 *     9.8017 *  0.0000     8          
    96  O     c      1.9603 *     5.8810 *     9.8017 *  0.0000     8          
    97  O     c      5.8810 *    -1.9603 *     9.8017 *  0.0000     8          
    98  O     c      9.8017 *    -1.9603 *     5.8810 *  0.0000     8          
    99  O     c     -5.8810 *    -1.9603 *     9.8017 *  0.0000     8          
   100  O     c     -9.8017 *    -1.9603 *     5.8810 *  0.0000     8          
   101  Cl    c      0.0000 *     0.0000      11.7620 *  0.0000     4          
   102  Cl    c      3.9207 *     7.8414 *     7.8414    0.0000     4          
   103  Cl    c      7.8414 *     3.9207 *     7.8414 *  0.0000     8          
   104  Cl    c     11.7620 *     0.0000       0.0000    0.0000     1          
   105  Cl    c     -3.9207 *     7.8414 *     7.8414    0.0000     4          
   106  Cl    c     -7.8414 *     3.9207 *     7.8414 *  0.0000     8          
   107  Cl    c    -11.7620 *     0.0000       0.0000    0.0000     1          
   108  Li    c     11.7620 *    -1.9603 *    -1.9603    0.0000     4          
   109  Li    c    -11.7620 *    -1.9603 *    -1.9603    0.0000     4          
   110  Li    c     -1.9603 *    11.7620 *    -1.9603 *  0.0000     8          
   111  Li    c      1.9603 *    11.7620 *    -1.9603 *  0.0000     8          
   112  Li    c      5.8810 *     9.8017 *     3.9207 *  0.0000     8          
   113  Li    c      9.8017 *     5.8810 *     3.9207 *  0.0000     8          
   114  Li    c     -5.8810 *     9.8017 *     3.9207 *  0.0000     8          
   115  Li    c     -9.8017 *     5.8810 *     3.9207 *  0.0000     8          
   116  Li    c      3.9207 *     5.8810 *     9.8017 *  0.0000     8          
   117  Li    c     -3.9207 *     5.8810 *     9.8017 *  0.0000     8          
   118  Cl    c      0.0000 *     3.9207 *    11.7620 *  0.0000     8          
   119  Cl    c      3.9207 *     0.0000      11.7620 *  0.0000     4          
   120  Cl    c     11.7620 *     0.0000       3.9207 *  0.0000     4          
   121  Cl    c     -3.9207 *     0.0000      11.7620 *  0.0000     4          
   122  Cl    c    -11.7620 *     0.0000       3.9207 *  0.0000     4          
   123  Li    c      7.8414 *    -1.9603 *     9.8017 *  0.0000     8          
   124  Li    c     -7.8414 *    -1.9603 *     9.8017 *  0.0000     8          
   125  Li    c     -1.9603 *     7.8414 *     9.8017 *  0.0000     8          
   126  Li    c      1.9603 *     7.8414 *     9.8017 *  0.0000     8          
   127  Li    c      9.8017 *     7.8414 *    -1.9603 *  0.0000     8          
   128  Li    c     -9.8017 *     7.8414 *    -1.9603 *  0.0000     8          
   129  O     c      5.8810 *     5.8810 *     9.8017 *  0.0000     8          
   130  O     c      9.8017 *     5.8810 *     5.8810    0.0000     4          
   131  O     c     -5.8810 *     5.8810 *     9.8017 *  0.0000     8          
   132  O     c     -9.8017 *     5.8810 *     5.8810    0.0000     4          
   133  Cl    c      3.9207 *    11.7620 *     3.9207 *  0.0000     8          
   134  Cl    c     11.7620 *     3.9207 *     3.9207    0.0000     4          
   135  Cl    c     -3.9207 *    11.7620 *     3.9207 *  0.0000     8          
   136  Cl    c    -11.7620 *     3.9207 *     3.9207    0.0000     4          
   137  Li    c     -1.9603 *     5.8810 *    11.7620 *  0.0000     8          
   138  Li    c      1.9603 *     5.8810 *    11.7620 *  0.0000     8          
   139  Li    c      5.8810 *    -1.9603 *    11.7620 *  0.0000     8          
   140  Li    c     -5.8810 *    -1.9603 *    11.7620 *  0.0000     8          
   141  Li    c     11.7620 *    -1.9603 *     5.8810 *  0.0000     8          
   142  Li    c    -11.7620 *    -1.9603 *     5.8810 *  0.0000     8          
   143  Cl    c      7.8414 *     7.8414 *     7.8414    0.0000     4          
   144  Cl    c     -7.8414 *     7.8414 *     7.8414    0.0000     4          
   145  Li    c     -1.9603 *    13.7224 *     0.0000    0.0000     4          
   146  Li    c      1.9603 *    13.7224 *     0.0000    0.0000     4          
   147  Li    c      5.8810 *     9.8017 *     7.8414 *  0.0000     8          
   148  Li    c      9.8017 *     5.8810 *     7.8414 *  0.0000     8          
   149  Li    c     13.7224 *    -1.9603 *     0.0000    0.0000     4          
   150  Li    c     -5.8810 *     9.8017 *     7.8414 *  0.0000     8          
   151  Li    c     -9.8017 *     5.8810 *     7.8414 *  0.0000     8          
   152  Li    c    -13.7224 *    -1.9603 *     0.0000    0.0000     4          
   153  Li    c      0.0000 *    -1.9603 *    13.7224 *  0.0000     8          
   154  Li    c      7.8414 *     5.8810 *     9.8017 *  0.0000     8          
   155  Li    c     -7.8414 *     5.8810 *     9.8017 *  0.0000     8          
   156  Li    c      9.8017 *     9.8017 *     0.0000    0.0000     4          
   157  Li    c     -9.8017 *     9.8017 *     0.0000    0.0000     4          
   158  Li    c      0.0000 *     9.8017 *     9.8017    0.0000     4          
   159  O     c     -1.9603 *    13.7224 *    -1.9603 *  0.0000     8          
   160  O     c      1.9603 *    13.7224 *    -1.9603 *  0.0000     8          
   161  O     c     13.7224 *    -1.9603 *    -1.9603    0.0000     4          
   162  O     c    -13.7224 *    -1.9603 *    -1.9603    0.0000     4          
   163  O     c     -1.9603 *     9.8017 *     9.8017    0.0000     4          
   164  O     c      1.9603 *     9.8017 *     9.8017    0.0000     4          
   165  O     c      9.8017 *    -1.9603 *     9.8017 *  0.0000     8          
   166  O     c     -9.8017 *    -1.9603 *     9.8017 *  0.0000     8          
   167  Cl    c      0.0000 *     7.8414 *    11.7620 *  0.0000     8          
   168  Cl    c      7.8414 *     0.0000      11.7620 *  0.0000     4          
   169  Cl    c     11.7620 *     0.0000       7.8414 *  0.0000     4          
   170  Cl    c     -7.8414 *     0.0000      11.7620 *  0.0000     4          
   171  Cl    c    -11.7620 *     0.0000       7.8414 *  0.0000     4          
   172  Li    c     -1.9603 *    13.7224 *     3.9207 *  0.0000     8          
   173  Li    c      1.9603 *    13.7224 *     3.9207 *  0.0000     8          
   174  Li    c      5.8810 *     5.8810 *    11.7620 *  0.0000     8          
   175  Li    c     13.7224 *    -1.9603 *     3.9207 *  0.0000     8          
   176  Li    c     -5.8810 *     5.8810 *    11.7620 *  0.0000     8          
   177  Li    c    -13.7224 *    -1.9603 *     3.9207 *  0.0000     8          
   178  Li    c      3.9207 *    13.7224 *    -1.9603 *  0.0000     8          
   179  Li    c     11.7620 *     5.8810 *     5.8810    0.0000     4          
   180  Li    c     -3.9207 *    13.7224 *    -1.9603 *  0.0000     8          
   181  Li    c    -11.7620 *     5.8810 *     5.8810    0.0000     4          
   182  Li    c      9.8017 *     9.8017 *     3.9207 *  0.0000     8          
   183  Li    c     -9.8017 *     9.8017 *     3.9207 *  0.0000     8          
   184  Li    c      3.9207 *     9.8017 *     9.8017    0.0000     4          
   185  Li    c     -3.9207 *     9.8017 *     9.8017    0.0000     4          
   186  Cl    c      3.9207 *     7.8414 *    11.7620 *  0.0000     8          
   187  Cl    c      7.8414 *     3.9207 *    11.7620 *  0.0000     8          
   188  Cl    c     11.7620 *     3.9207 *     7.8414 *  0.0000     8          
   189  Cl    c     -3.9207 *     7.8414 *    11.7620 *  0.0000     8          
   190  Cl    c     -7.8414 *     3.9207 *    11.7620 *  0.0000     8          
   191  Cl    c    -11.7620 *     3.9207 *     7.8414 *  0.0000     8          
   192  Li    c      5.8810 *    13.7224 *     0.0000    0.0000     4          
   193  Li    c     13.7224 *     5.8810 *     0.0000    0.0000     4          
   194  Li    c     -5.8810 *    13.7224 *     0.0000    0.0000     4          
   195  Li    c    -13.7224 *     5.8810 *     0.0000    0.0000     4          
   196  Li    c      0.0000 *     5.8810 *    13.7224 *  0.0000     8          
   197  O     c     -1.9603 *     5.8810 *    13.7224 *  0.0000     8          
   198  O     c      1.9603 *     5.8810 *    13.7224 *  0.0000     8          
   199  O     c      5.8810 *    -1.9603 *    13.7224 *  0.0000     8          
   200  O     c     13.7224 *    -1.9603 *     5.8810 *  0.0000     8          
   201  O     c     -5.8810 *    -1.9603 *    13.7224 *  0.0000     8          
   202  O     c    -13.7224 *    -1.9603 *     5.8810 *  0.0000     8          
   203  O     c      5.8810 *     9.8017 *     9.8017    0.0000     4          
   204  O     c      9.8017 *     5.8810 *     9.8017 *  0.0000     8          
   205  O     c     -5.8810 *     9.8017 *     9.8017    0.0000     4          
   206  O     c     -9.8017 *     5.8810 *     9.8017 *  0.0000     8          
   207  Li    c      5.8810 *    13.7224 *     3.9207 *  0.0000     8          
   208  Li    c     13.7224 *     5.8810 *     3.9207 *  0.0000     8          
   209  Li    c     -5.8810 *    13.7224 *     3.9207 *  0.0000     8          
   210  Li    c    -13.7224 *     5.8810 *     3.9207 *  0.0000     8          
   211  Li    c      3.9207 *     5.8810 *    13.7224 *  0.0000     8          
   212  Li    c     11.7620 *    -1.9603 *     9.8017 *  0.0000     8          
   213  Li    c     -3.9207 *     5.8810 *    13.7224 *  0.0000     8          
   214  Li    c    -11.7620 *    -1.9603 *     9.8017 *  0.0000     8          
   215  Li    c     -1.9603 *    11.7620 *     9.8017 *  0.0000     8          
   216  Li    c      1.9603 *    11.7620 *     9.8017 *  0.0000     8          
   217  Li    c      9.8017 *    11.7620 *    -1.9603 *  0.0000     8          
   218  Li    c     -9.8017 *    11.7620 *    -1.9603 *  0.0000     8          
   219  Cl    c      0.0000 *     0.0000      15.6827 *  0.0000     4          
   220  Cl    c     15.6827 *     0.0000       0.0000    0.0000     1          
   221  Cl    c    -15.6827 *     0.0000       0.0000    0.0000     1          
   222  Li    c     15.6827 *    -1.9603 *    -1.9603    0.0000     4          
   223  Li    c    -15.6827 *    -1.9603 *    -1.9603    0.0000     4          
   224  Li    c     -1.9603 *    15.6827 *    -1.9603 *  0.0000     8          
   225  Li    c      1.9603 *    15.6827 *    -1.9603 *  0.0000     8          
   226  Li    c     -1.9603 *    13.7224 *     7.8414 *  0.0000     8          
   227  Li    c      1.9603 *    13.7224 *     7.8414 *  0.0000     8          
   228  Li    c     13.7224 *    -1.9603 *     7.8414 *  0.0000     8          
   229  Li    c    -13.7224 *    -1.9603 *     7.8414 *  0.0000     8          
   230  Li    c      7.8414 *    -1.9603 *    13.7224 *  0.0000     8          
   231  Li    c     -7.8414 *    -1.9603 *    13.7224 *  0.0000     8          
   232  Li    c      9.8017 *     9.8017 *     7.8414 *  0.0000     8          
   233  Li    c     -9.8017 *     9.8017 *     7.8414 *  0.0000     8          
   234  Li    c      7.8414 *     9.8017 *     9.8017    0.0000     4          
   235  Li    c     -7.8414 *     9.8017 *     9.8017    0.0000     4          
   236  O     c      5.8810 *     5.8810 *    13.7224 *  0.0000     8          
   237  O     c     13.7224 *     5.8810 *     5.8810    0.0000     4          
   238  O     c     -5.8810 *     5.8810 *    13.7224 *  0.0000     8          
   239  O     c    -13.7224 *     5.8810 *     5.8810    0.0000     4          
   240  Cl    c      0.0000 *     3.9207 *    15.6827 *  0.0000     8          
   241  Cl    c      3.9207 *     0.0000      15.6827 *  0.0000     4          
   242  Cl    c      7.8414 *     7.8414 *    11.7620 *  0.0000     8          
   243  Cl    c     11.7620 *     7.8414 *     7.8414    0.0000     4          
   244  Cl    c     15.6827 *     0.0000       3.9207 *  0.0000     4          
   245  Cl    c     -3.9207 *     0.0000      15.6827 *  0.0000     4          
   246  Cl    c     -7.8414 *     7.8414 *    11.7620 *  0.0000     8          
   247  Cl    c    -11.7620 *     7.8414 *     7.8414    0.0000     4          
   248  Cl    c    -15.6827 *     0.0000       3.9207 *  0.0000     4          
   249  Li    c      5.8810 *     9.8017 *    11.7620 *  0.0000     8          
   250  Li    c      9.8017 *     5.8810 *    11.7620 *  0.0000     8          
   251  Li    c     -5.8810 *     9.8017 *    11.7620 *  0.0000     8          
   252  Li    c     -9.8017 *     5.8810 *    11.7620 *  0.0000     8          
   253  Li    c     11.7620 *     5.8810 *     9.8017 *  0.0000     8          
   254  Li    c    -11.7620 *     5.8810 *     9.8017 *  0.0000     8          
   255  Cl    c      0.0000 *    11.7620 *    11.7620    0.0000     4          
   256  Cl    c      3.9207 *     3.9207 *    15.6827 *  0.0000     8          
   257  Cl    c     11.7620 *     0.0000      11.7620 *  0.0000     4          
   258  Cl    c     15.6827 *     3.9207 *     3.9207    0.0000     4          
   259  Cl    c     -3.9207 *     3.9207 *    15.6827 *  0.0000     8          
   260  Cl    c    -11.7620 *     0.0000      11.7620 *  0.0000     4          
   261  Cl    c    -15.6827 *     3.9207 *     3.9207    0.0000     4          
   262  Li    c     -1.9603 *     5.8810 *    15.6827 *  0.0000     8          
   263  Li    c      1.9603 *     5.8810 *    15.6827 *  0.0000     8          
   264  Li    c      5.8810 *    -1.9603 *    15.6827 *  0.0000     8          
   265  Li    c     -5.8810 *    -1.9603 *    15.6827 *  0.0000     8          
   266  Li    c      7.8414 *     5.8810 *    13.7224 *  0.0000     8          
   267  Li    c     15.6827 *    -1.9603 *     5.8810 *  0.0000     8          
   268  Li    c     -7.8414 *     5.8810 *    13.7224 *  0.0000     8          
   269  Li    c    -15.6827 *    -1.9603 *     5.8810 *  0.0000     8          
   270  Li    c      5.8810 *     7.8414 *    13.7224 *  0.0000     8          
   271  Li    c     13.7224 *     7.8414 *     5.8810 *  0.0000     8          
   272  Li    c     -5.8810 *     7.8414 *    13.7224 *  0.0000     8          
   273  Li    c    -13.7224 *     7.8414 *     5.8810 *  0.0000     8          
   274  Li    c      9.8017 *    13.7224 *     0.0000    0.0000     4          
   275  Li    c     13.7224 *     9.8017 *     0.0000    0.0000     4          
   276  Li    c     -9.8017 *    13.7224 *     0.0000    0.0000     4          
   277  Li    c    -13.7224 *     9.8017 *     0.0000    0.0000     4          
   278  Li    c      0.0000 *     9.8017 *    13.7224 *  0.0000     8          
   279  O     c     -1.9603 *     9.8017 *    13.7224 *  0.0000     8          
   280  O     c      1.9603 *     9.8017 *    13.7224 *  0.0000     8          
   281  O     c      9.8017 *    -1.9603 *    13.7224 *  0.0000     8          
   282  O     c      9.8017 *     9.8017 *     9.8017    0.0000     4          
   283  O     c     13.7224 *    -1.9603 *     9.8017 *  0.0000     8          
   284  O     c     -9.8017 *    -1.9603 *    13.7224 *  0.0000     8          
   285  O     c     -9.8017 *     9.8017 *     9.8017    0.0000     4          
   286  O     c    -13.7224 *    -1.9603 *     9.8017 *  0.0000     8          
   287  Cl    c      3.9207 *    11.7620 *    11.7620    0.0000     4          
   288  Cl    c     11.7620 *     3.9207 *    11.7620 *  0.0000     8          
   289  Cl    c     -3.9207 *    11.7620 *    11.7620    0.0000     4          
   290  Cl    c    -11.7620 *     3.9207 *    11.7620 *  0.0000     8          
   291  Li    c      9.8017 *    13.7224 *     3.9207 *  0.0000     8          
   292  Li    c     13.7224 *     9.8017 *     3.9207 *  0.0000     8          
   293  Li    c     -9.8017 *    13.7224 *     3.9207 *  0.0000     8          
   294  Li    c    -13.7224 *     9.8017 *     3.9207 *  0.0000     8          
   295  Li    c      3.9207 *     9.8017 *    13.7224 *  0.0000     8          
   296  Li    c     -3.9207 *     9.8017 *    13.7224 *  0.0000     8          
   297  Cl    c      0.0000 *     7.8414 *    15.6827 *  0.0000     8          
   298  Cl    c      7.8414 *     0.0000      15.6827 *  0.0000     4          
   299  Cl    c     15.6827 *     0.0000       7.8414 *  0.0000     4          
   300  Cl    c     -7.8414 *     0.0000      15.6827 *  0.0000     4          
   301  Cl    c    -15.6827 *     0.0000       7.8414 *  0.0000     4          
   302  Li    c     -1.9603 *    17.6430 *     0.0000    0.0000     4          
   303  Li    c      1.9603 *    17.6430 *     0.0000    0.0000     4          
   304  Li    c      5.8810 *     5.8810 *    15.6827 *  0.0000     8          
   305  Li    c     17.6430 *    -1.9603 *     0.0000    0.0000     4          
   306  Li    c     -5.8810 *     5.8810 *    15.6827 *  0.0000     8          
   307  Li    c    -17.6430 *    -1.9603 *     0.0000    0.0000     4          
   308  Li    c      0.0000 *    -1.9603 *    17.6430 *  0.0000     8          
   309  Li    c     15.6827 *     5.8810 *     5.8810    0.0000     4          
   310  Li    c    -15.6827 *     5.8810 *     5.8810    0.0000     4          
   311  O     c     -1.9603 *    -1.9603 *    17.6430 *  0.0000     8          
   312  O     c      1.9603 *    -1.9603 *    17.6430 *  0.0000     8          
   313  O     c     17.6430 *    -1.9603 *    -1.9603    0.0000     4          
   314  O     c    -17.6430 *    -1.9603 *    -1.9603    0.0000     4          
   315  O     c      5.8810 *     9.8017 *    13.7224 *  0.0000     8          
   316  O     c      9.8017 *     5.8810 *    13.7224 *  0.0000     8          
   317  O     c     13.7224 *     5.8810 *     9.8017 *  0.0000     8          
   318  O     c     -5.8810 *     9.8017 *    13.7224 *  0.0000     8          
   319  O     c     -9.8017 *     5.8810 *    13.7224 *  0.0000     8          
   320  O     c    -13.7224 *     5.8810 *     9.8017 *  0.0000     8          
   321  Cl    c      3.9207 *     7.8414 *    15.6827 *  0.0000     8          
   322  Cl    c      7.8414 *     3.9207 *    15.6827 *  0.0000     8          
   323  Cl    c     15.6827 *     3.9207 *     7.8414 *  0.0000     8          
   324  Cl    c     -3.9207 *     7.8414 *    15.6827 *  0.0000     8          
   325  Cl    c     -7.8414 *     3.9207 *    15.6827 *  0.0000     8          
   326  Cl    c    -15.6827 *     3.9207 *     7.8414 *  0.0000     8          
   327  Li    c     -1.9603 *    13.7224 *    11.7620 *  0.0000     8          
   328  Li    c      1.9603 *    13.7224 *    11.7620 *  0.0000     8          
   329  Li    c     13.7224 *    -1.9603 *    11.7620 *  0.0000     8          
   330  Li    c    -13.7224 *    -1.9603 *    11.7620 *  0.0000     8          
   331  Li    c     11.7620 *    -1.9603 *    13.7224 *  0.0000     8          
   332  Li    c    -11.7620 *    -1.9603 *    13.7224 *  0.0000     8          
   333  Li    c     -1.9603 *    17.6430 *     3.9207 *  0.0000     8          
   334  Li    c      1.9603 *    17.6430 *     3.9207 *  0.0000     8          
   335  Li    c      9.8017 *     9.8017 *    11.7620 *  0.0000     8          
   336  Li    c     17.6430 *    -1.9603 *     3.9207 *  0.0000     8          
   337  Li    c     -9.8017 *     9.8017 *    11.7620 *  0.0000     8          
   338  Li    c    -17.6430 *    -1.9603 *     3.9207 *  0.0000     8          
   339  Li    c      3.9207 *    -1.9603 *    17.6430 *  0.0000     8          
   340  Li    c     11.7620 *     9.8017 *     9.8017    0.0000     4          
   341  Li    c     -3.9207 *    -1.9603 *    17.6430 *  0.0000     8          
   342  Li    c    -11.7620 *     9.8017 *     9.8017    0.0000     4          
   343  Cl    c      7.8414 *    11.7620 *    11.7620    0.0000     4          
   344  Cl    c     11.7620 *     7.8414 *    11.7620 *  0.0000     8          
   345  Cl    c     -7.8414 *    11.7620 *    11.7620    0.0000     4          
   346  Cl    c    -11.7620 *     7.8414 *    11.7620 *  0.0000     8          
   347  Li    c     -1.9603 *     9.8017 *    15.6827 *  0.0000     8          
   348  Li    c      1.9603 *     9.8017 *    15.6827 *  0.0000     8          
   349  Li    c      9.8017 *    -1.9603 *    15.6827 *  0.0000     8          
   350  Li    c     -9.8017 *    -1.9603 *    15.6827 *  0.0000     8          
   351  Li    c     15.6827 *    -1.9603 *     9.8017 *  0.0000     8          
   352  Li    c    -15.6827 *    -1.9603 *     9.8017 *  0.0000     8          
   353  Li    c      5.8810 *    17.6430 *     0.0000    0.0000     4          
   354  Li    c      9.8017 *    13.7224 *     7.8414 *  0.0000     8          
   355  Li    c     13.7224 *     9.8017 *     7.8414 *  0.0000     8          
   356  Li    c     17.6430 *     5.8810 *     0.0000    0.0000     4          
   357  Li    c     -5.8810 *    17.6430 *     0.0000    0.0000     4          
   358  Li    c     -9.8017 *    13.7224 *     7.8414 *  0.0000     8          
   359  Li    c    -13.7224 *     9.8017 *     7.8414 *  0.0000     8          
   360  Li    c    -17.6430 *     5.8810 *     0.0000    0.0000     4          
   361  Li    c      0.0000 *     5.8810 *    17.6430 *  0.0000     8          
   362  Li    c      7.8414 *     9.8017 *    13.7224 *  0.0000     8          
   363  Li    c     -7.8414 *     9.8017 *    13.7224 *  0.0000     8          
   364  O     c     -1.9603 *    17.6430 *     5.8810 *  0.0000     8          
   365  O     c      1.9603 *    17.6430 *     5.8810 *  0.0000     8          
   366  O     c     17.6430 *    -1.9603 *     5.8810 *  0.0000     8          
   367  O     c    -17.6430 *    -1.9603 *     5.8810 *  0.0000     8          
   368  O     c      5.8810 *    -1.9603 *    17.6430 *  0.0000     8          
   369  O     c     -5.8810 *    -1.9603 *    17.6430 *  0.0000     8          
   370  Li    c      5.8810 *    13.7224 *    11.7620 *  0.0000     8          
   371  Li    c     13.7224 *     5.8810 *    11.7620 *  0.0000     8          
   372  Li    c     -5.8810 *    13.7224 *    11.7620 *  0.0000     8          
   373  Li    c    -13.7224 *     5.8810 *    11.7620 *  0.0000     8          
   374  Li    c      3.9207 *     5.8810 *    17.6430 *  0.0000     8          
   375  Li    c     11.7620 *     5.8810 *    13.7224 *  0.0000     8          
   376  Li    c     -3.9207 *     5.8810 *    17.6430 *  0.0000     8          
   377  Li    c    -11.7620 *     5.8810 *    13.7224 *  0.0000     8          
   378  Li    c      5.8810 *     3.9207 *    17.6430 *  0.0000     8          
   379  Li    c     17.6430 *     3.9207 *     5.8810 *  0.0000     8          
   380  Li    c     -5.8810 *     3.9207 *    17.6430 *  0.0000     8          
   381  Li    c    -17.6430 *     3.9207 *     5.8810 *  0.0000     8          
   382  Cl    c      7.8414 *     7.8414 *    15.6827 *  0.0000     8          
   383  Cl    c     15.6827 *     7.8414 *     7.8414    0.0000     4          
   384  Cl    c     -7.8414 *     7.8414 *    15.6827 *  0.0000     8          
   385  Cl    c    -15.6827 *     7.8414 *     7.8414    0.0000     4          
   386  Li    c      5.8810 *     9.8017 *    15.6827 *  0.0000     8          
   387  Li    c      9.8017 *     5.8810 *    15.6827 *  0.0000     8          
   388  Li    c     -5.8810 *     9.8017 *    15.6827 *  0.0000     8          
   389  Li    c     -9.8017 *     5.8810 *    15.6827 *  0.0000     8          
   390  Li    c     15.6827 *     5.8810 *     9.8017 *  0.0000     8          
   391  Li    c    -15.6827 *     5.8810 *     9.8017 *  0.0000     8          
   392  Li    c     -1.9603 *    17.6430 *     7.8414 *  0.0000     8          
   393  Li    c      1.9603 *    17.6430 *     7.8414 *  0.0000     8          
   394  Li    c     13.7224 *    13.7224 *     0.0000    0.0000     4          
   395  Li    c     17.6430 *    -1.9603 *     7.8414 *  0.0000     8          
   396  Li    c    -13.7224 *    13.7224 *     0.0000    0.0000     4          
   397  Li    c    -17.6430 *    -1.9603 *     7.8414 *  0.0000     8          
   398  Li    c      0.0000 *    13.7224 *    13.7224    0.0000     4          
   399  Li    c      7.8414 *    -1.9603 *    17.6430 *  0.0000     8          
   400  Li    c     -7.8414 *    -1.9603 *    17.6430 *  0.0000     8          
   401  O     c     -1.9603 *    13.7224 *    13.7224    0.0000     4          
   402  O     c      1.9603 *    13.7224 *    13.7224    0.0000     4          
   403  O     c      5.8810 *     5.8810 *    17.6430 *  0.0000     8          
   404  O     c      9.8017 *     9.8017 *    13.7224 *  0.0000     8          
   405  O     c     13.7224 *    -1.9603 *    13.7224 *  0.0000     8          
   406  O     c     13.7224 *     9.8017 *     9.8017    0.0000     4          
   407  O     c     17.6430 *     5.8810 *     5.8810    0.0000     4          
   408  O     c     -5.8810 *     5.8810 *    17.6430 *  0.0000     8          
   409  O     c     -9.8017 *     9.8017 *    13.7224 *  0.0000     8          
   410  O     c    -13.7224 *    -1.9603 *    13.7224 *  0.0000     8          
   411  O     c    -13.7224 *     9.8017 *     9.8017    0.0000     4          
   412  O     c    -17.6430 *     5.8810 *     5.8810    0.0000     4          
   413  Cl    c      0.0000 *    11.7620 *    15.6827 *  0.0000     8          
   414  Cl    c     11.7620 *     0.0000      15.6827 *  0.0000     4          
   415  Cl    c     15.6827 *     0.0000      11.7620 *  0.0000     4          
   416  Cl    c    -11.7620 *     0.0000      15.6827 *  0.0000     4          
   417  Cl    c    -15.6827 *     0.0000      11.7620 *  0.0000     4          
   418  Cl    c      0.0000 *     0.0000      19.6034 *  0.0000     4          
   419  Cl    c     19.6034 *     0.0000       0.0000    0.0000     1          
   420  Cl    c    -19.6034 *     0.0000       0.0000    0.0000     1          
   421  Li    c     -1.9603 *    -1.9603 *    19.6034 *  0.0000     8          
   422  Li    c      1.9603 *    -1.9603 *    19.6034 *  0.0000     8          
   423  Li    c     13.7224 *    13.7224 *     3.9207 *  0.0000     8          
   424  Li    c    -13.7224 *    13.7224 *     3.9207 *  0.0000     8          
   425  Li    c      3.9207 *    13.7224 *    13.7224    0.0000     4          
   426  Li    c     19.6034 *    -1.9603 *    -1.9603    0.0000     4          
   427  Li    c     -3.9207 *    13.7224 *    13.7224    0.0000     4          
   428  Li    c    -19.6034 *    -1.9603 *    -1.9603    0.0000     4          
   429  Cl    c      3.9207 *    11.7620 *    15.6827 *  0.0000     8          
   430  Cl    c     11.7620 *     3.9207 *    15.6827 *  0.0000     8          
   431  Cl    c     15.6827 *     3.9207 *    11.7620 *  0.0000     8          
   432  Cl    c     -3.9207 *    11.7620 *    15.6827 *  0.0000     8          
   433  Cl    c    -11.7620 *     3.9207 *    15.6827 *  0.0000     8          
   434  Cl    c    -15.6827 *     3.9207 *    11.7620 *  0.0000     8          
   435  Cl    c      0.0000 *     3.9207 *    19.6034 *  0.0000     8          
   436  Cl    c      3.9207 *     0.0000      19.6034 *  0.0000     4          
   437  Cl    c     19.6034 *     0.0000       3.9207 *  0.0000     4          
   438  Cl    c     -3.9207 *     0.0000      19.6034 *  0.0000     4          
   439  Cl    c    -19.6034 *     0.0000       3.9207 *  0.0000     4          
   440  Cl    s      0.0000       0.0000       0.0000    0.0000     1          
   441  O     s     -1.9603 *    -1.9603 *    -1.9603    0.0000     4          
   442  O     s      1.9603 *    -1.9603 *    -1.9603    0.0000     4          
   443  Cl    s      0.0000 *     0.0000       3.9207 *  0.0000     4          
   444  Cl    s     -3.9207 *     0.0000       0.0000    0.0000     1          
   445  Cl    s      0.0000 *     3.9207 *     3.9207    0.0000     4          
   446  Cl    s      3.9207 *     0.0000       3.9207 *  0.0000     4          
   447  Cl    s     -3.9207 *     0.0000       3.9207 *  0.0000     4          
   448  O     s     -1.9603 *     5.8810 *    -1.9603 *  0.0000     8          
   449  O     s      1.9603 *     5.8810 *    -1.9603 *  0.0000     8          
   450  O     s      5.8810 *    -1.9603 *    -1.9603    0.0000     4          
   451  O     s     -5.8810 *    -1.9603 *    -1.9603    0.0000     4          
   452  Cl    s      3.9207 *     3.9207 *     3.9207    0.0000     4          
   453  Cl    s     -3.9207 *     3.9207 *     3.9207    0.0000     4          
   454  Cl    s      0.0000 *     0.0000       7.8414 *  0.0000     4          
   455  Cl    s      7.8414 *     0.0000       0.0000    0.0000     1          
   456  Cl    s     -7.8414 *     0.0000       0.0000    0.0000     1          
   457  O     s     -1.9603 *     5.8810 *     5.8810    0.0000     4          
   458  O     s      1.9603 *     5.8810 *     5.8810    0.0000     4          
   459  O     s      5.8810 *    -1.9603 *     5.8810 *  0.0000     8          
   460  O     s     -5.8810 *    -1.9603 *     5.8810 *  0.0000     8          
   461  Cl    s      0.0000 *     3.9207 *     7.8414 *  0.0000     8          
   462  Cl    s      3.9207 *     0.0000       7.8414 *  0.0000     4          
   463  Cl    s      7.8414 *     0.0000       3.9207 *  0.0000     4          
   464  Cl    s     -3.9207 *     0.0000       7.8414 *  0.0000     4          
   465  Cl    s     -7.8414 *     0.0000       3.9207 *  0.0000     4          
   466  Cl    s      3.9207 *     3.9207 *     7.8414 *  0.0000     8          
   467  Cl    s      7.8414 *     3.9207 *     3.9207    0.0000     4          
   468  Cl    s     -3.9207 *     3.9207 *     7.8414 *  0.0000     8          
   469  Cl    s     -7.8414 *     3.9207 *     3.9207    0.0000     4          
   470  O     s      5.8810 *     5.8810 *     5.8810    0.0000     4          
   471  O     s     -5.8810 *     5.8810 *     5.8810    0.0000     4          
   472  O     s     -1.9603 *    -1.9603 *     9.8017 *  0.0000     8          
   473  O     s      1.9603 *    -1.9603 *     9.8017 *  0.0000     8          
   474  O     s      9.8017 *    -1.9603 *    -1.9603    0.0000     4          
   475  O     s     -9.8017 *    -1.9603 *    -1.9603    0.0000     4          
   476  Cl    s      0.0000 *     7.8414 *     7.8414    0.0000     4          
   477  Cl    s      7.8414 *     0.0000       7.8414 *  0.0000     4          
   478  Cl    s     -7.8414 *     0.0000       7.8414 *  0.0000     4          
   479  O     s     -1.9603 *     5.8810 *     9.8017 *  0.0000     8          
   480  O     s      1.9603 *     5.8810 *     9.8017 *  0.0000     8          
   481  O     s      5.8810 *    -1.9603 *     9.8017 *  0.0000     8          
   482  O     s      9.8017 *    -1.9603 *     5.8810 *  0.0000     8          
   483  O     s     -5.8810 *    -1.9603 *     9.8017 *  0.0000     8          
   484  O     s     -9.8017 *    -1.9603 *     5.8810 *  0.0000     8          
   485  Cl    s      0.0000 *     0.0000      11.7620 *  0.0000     4          
   486  Cl    s      3.9207 *     7.8414 *     7.8414    0.0000     4          
   487  Cl    s      7.8414 *     3.9207 *     7.8414 *  0.0000     8          
   488  Cl    s     11.7620 *     0.0000       0.0000    0.0000     1          
   489  Cl    s     -3.9207 *     7.8414 *     7.8414    0.0000     4          
   490  Cl    s     -7.8414 *     3.9207 *     7.8414 *  0.0000     8          
   491  Cl    s    -11.7620 *     0.0000       0.0000    0.0000     1          
   492  Cl    s      0.0000 *     3.9207 *    11.7620 *  0.0000     8          
   493  Cl    s      3.9207 *     0.0000      11.7620 *  0.0000     4          
   494  Cl    s     11.7620 *     0.0000       3.9207 *  0.0000     4          
   495  Cl    s     -3.9207 *     0.0000      11.7620 *  0.0000     4          
   496  Cl    s    -11.7620 *     0.0000       3.9207 *  0.0000     4          
   497  O     s      5.8810 *     5.8810 *     9.8017 *  0.0000     8          
   498  O     s      9.8017 *     5.8810 *     5.8810    0.0000     4          
   499  O     s     -5.8810 *     5.8810 *     9.8017 *  0.0000     8          
   500  O     s     -9.8017 *     5.8810 *     5.8810    0.0000     4          
   501  Cl    s      3.9207 *    11.7620 *     3.9207 *  0.0000     8          
   502  Cl    s     11.7620 *     3.9207 *     3.9207    0.0000     4          
   503  Cl    s     -3.9207 *    11.7620 *     3.9207 *  0.0000     8          
   504  Cl    s    -11.7620 *     3.9207 *     3.9207    0.0000     4          
   505  Cl    s      7.8414 *     7.8414 *     7.8414    0.0000     4          
   506  Cl    s     -7.8414 *     7.8414 *     7.8414    0.0000     4          
   507  O     s     -1.9603 *    13.7224 *    -1.9603 *  0.0000     8          
   508  O     s      1.9603 *    13.7224 *    -1.9603 *  0.0000     8          
   509  O     s     13.7224 *    -1.9603 *    -1.9603    0.0000     4          
   510  O     s    -13.7224 *    -1.9603 *    -1.9603    0.0000     4          
   511  O     s     -1.9603 *     9.8017 *     9.8017    0.0000     4          
   512  O     s      1.9603 *     9.8017 *     9.8017    0.0000     4          
   513  O     s      9.8017 *    -1.9603 *     9.8017 *  0.0000     8          
   514  O     s     -9.8017 *    -1.9603 *     9.8017 *  0.0000     8          
   515  Cl    s      0.0000 *     7.8414 *    11.7620 *  0.0000     8          
   516  Cl    s      7.8414 *     0.0000      11.7620 *  0.0000     4          
   517  Cl    s     11.7620 *     0.0000       7.8414 *  0.0000     4          
   518  Cl    s     -7.8414 *     0.0000      11.7620 *  0.0000     4          
   519  Cl    s    -11.7620 *     0.0000       7.8414 *  0.0000     4          
   520  Cl    s      3.9207 *     7.8414 *    11.7620 *  0.0000     8          
   521  Cl    s      7.8414 *     3.9207 *    11.7620 *  0.0000     8          
   522  Cl    s     11.7620 *     3.9207 *     7.8414 *  0.0000     8          
   523  Cl    s     -3.9207 *     7.8414 *    11.7620 *  0.0000     8          
   524  Cl    s     -7.8414 *     3.9207 *    11.7620 *  0.0000     8          
   525  Cl    s    -11.7620 *     3.9207 *     7.8414 *  0.0000     8          
   526  O     s     -1.9603 *     5.8810 *    13.7224 *  0.0000     8          
   527  O     s      1.9603 *     5.8810 *    13.7224 *  0.0000     8          
   528  O     s      5.8810 *    -1.9603 *    13.7224 *  0.0000     8          
   529  O     s     13.7224 *    -1.9603 *     5.8810 *  0.0000     8          
   530  O     s     -5.8810 *    -1.9603 *    13.7224 *  0.0000     8          
   531  O     s    -13.7224 *    -1.9603 *     5.8810 *  0.0000     8          
   532  O     s      5.8810 *     9.8017 *     9.8017    0.0000     4          
   533  O     s      9.8017 *     5.8810 *     9.8017 *  0.0000     8          
   534  O     s     -5.8810 *     9.8017 *     9.8017    0.0000     4          
   535  O     s     -9.8017 *     5.8810 *     9.8017 *  0.0000     8          
   536  Cl    s      0.0000 *     0.0000      15.6827 *  0.0000     4          
   537  Cl    s     15.6827 *     0.0000       0.0000    0.0000     1          
   538  Cl    s    -15.6827 *     0.0000       0.0000    0.0000     1          
   539  O     s      5.8810 *     5.8810 *    13.7224 *  0.0000     8          
   540  O     s     13.7224 *     5.8810 *     5.8810    0.0000     4          
   541  O     s     -5.8810 *     5.8810 *    13.7224 *  0.0000     8          
   542  O     s    -13.7224 *     5.8810 *     5.8810    0.0000     4          
   543  Cl    s      0.0000 *     3.9207 *    15.6827 *  0.0000     8          
   544  Cl    s      3.9207 *     0.0000      15.6827 *  0.0000     4          
   545  Cl    s      7.8414 *     7.8414 *    11.7620 *  0.0000     8          
   546  Cl    s     11.7620 *     7.8414 *     7.8414    0.0000     4          
   547  Cl    s     15.6827 *     0.0000       3.9207 *  0.0000     4          
   548  Cl    s     -3.9207 *     0.0000      15.6827 *  0.0000     4          
   549  Cl    s     -7.8414 *     7.8414 *    11.7620 *  0.0000     8          
   550  Cl    s    -11.7620 *     7.8414 *     7.8414    0.0000     4          
   551  Cl    s    -15.6827 *     0.0000       3.9207 *  0.0000     4          
   552  Cl    s      0.0000 *    11.7620 *    11.7620    0.0000     4          
   553  Cl    s      3.9207 *     3.9207 *    15.6827 *  0.0000     8          
   554  Cl    s     11.7620 *     0.0000      11.7620 *  0.0000     4          
   555  Cl    s     15.6827 *     3.9207 *     3.9207    0.0000     4          
   556  Cl    s     -3.9207 *     3.9207 *    15.6827 *  0.0000     8          
   557  Cl    s    -11.7620 *     0.0000      11.7620 *  0.0000     4          
   558  Cl    s    -15.6827 *     3.9207 *     3.9207    0.0000     4          
   559  O     s     -1.9603 *     9.8017 *    13.7224 *  0.0000     8          
   560  O     s      1.9603 *     9.8017 *    13.7224 *  0.0000     8          
   561  O     s      9.8017 *    -1.9603 *    13.7224 *  0.0000     8          
   562  O     s      9.8017 *     9.8017 *     9.8017    0.0000     4          
   563  O     s     13.7224 *    -1.9603 *     9.8017 *  0.0000     8          
   564  O     s     -9.8017 *    -1.9603 *    13.7224 *  0.0000     8          
   565  O     s     -9.8017 *     9.8017 *     9.8017    0.0000     4          
   566  O     s    -13.7224 *    -1.9603 *     9.8017 *  0.0000     8          
   567  Cl    s      3.9207 *    11.7620 *    11.7620    0.0000     4          
   568  Cl    s     11.7620 *     3.9207 *    11.7620 *  0.0000     8          
   569  Cl    s     -3.9207 *    11.7620 *    11.7620    0.0000     4          
   570  Cl    s    -11.7620 *     3.9207 *    11.7620 *  0.0000     8          
   571  Cl    s      0.0000 *     7.8414 *    15.6827 *  0.0000     8          
   572  Cl    s      7.8414 *     0.0000      15.6827 *  0.0000     4          
   573  Cl    s     15.6827 *     0.0000       7.8414 *  0.0000     4          
   574  Cl    s     -7.8414 *     0.0000      15.6827 *  0.0000     4          
   575  Cl    s    -15.6827 *     0.0000       7.8414 *  0.0000     4          
   576  O     s     -1.9603 *    -1.9603 *    17.6430 *  0.0000     8          
   577  O     s      1.9603 *    -1.9603 *    17.6430 *  0.0000     8          
   578  O     s     17.6430 *    -1.9603 *    -1.9603    0.0000     4          
   579  O     s    -17.6430 *    -1.9603 *    -1.9603    0.0000     4          
   580  O     s      5.8810 *     9.8017 *    13.7224 *  0.0000     8          
   581  O     s      9.8017 *     5.8810 *    13.7224 *  0.0000     8          
   582  O     s     13.7224 *     5.8810 *     9.8017 *  0.0000     8          
   583  O     s     -5.8810 *     9.8017 *    13.7224 *  0.0000     8          
   584  O     s     -9.8017 *     5.8810 *    13.7224 *  0.0000     8          
   585  O     s    -13.7224 *     5.8810 *     9.8017 *  0.0000     8          
   586  Cl    s      3.9207 *     7.8414 *    15.6827 *  0.0000     8          
   587  Cl    s      7.8414 *     3.9207 *    15.6827 *  0.0000     8          
   588  Cl    s     15.6827 *     3.9207 *     7.8414 *  0.0000     8          
   589  Cl    s     -3.9207 *     7.8414 *    15.6827 *  0.0000     8          
   590  Cl    s     -7.8414 *     3.9207 *    15.6827 *  0.0000     8          
   591  Cl    s    -15.6827 *     3.9207 *     7.8414 *  0.0000     8          
   592  Cl    s      7.8414 *    11.7620 *    11.7620    0.0000     4          
   593  Cl    s     11.7620 *     7.8414 *    11.7620 *  0.0000     8          
   594  Cl    s     -7.8414 *    11.7620 *    11.7620    0.0000     4          
   595  Cl    s    -11.7620 *     7.8414 *    11.7620 *  0.0000     8          
   596  O     s     -1.9603 *    17.6430 *     5.8810 *  0.0000     8          
   597  O     s      1.9603 *    17.6430 *     5.8810 *  0.0000     8          
   598  O     s     17.6430 *    -1.9603 *     5.8810 *  0.0000     8          
   599  O     s    -17.6430 *    -1.9603 *     5.8810 *  0.0000     8          
   600  O     s      5.8810 *    -1.9603 *    17.6430 *  0.0000     8          
   601  O     s     -5.8810 *    -1.9603 *    17.6430 *  0.0000     8          
   602  Cl    s      7.8414 *     7.8414 *    15.6827 *  0.0000     8          
   603  Cl    s     15.6827 *     7.8414 *     7.8414    0.0000     4          
   604  Cl    s     -7.8414 *     7.8414 *    15.6827 *  0.0000     8          
   605  Cl    s    -15.6827 *     7.8414 *     7.8414    0.0000     4          
   606  O     s     -1.9603 *    13.7224 *    13.7224    0.0000     4          
   607  O     s      1.9603 *    13.7224 *    13.7224    0.0000     4          
   608  O     s      5.8810 *     5.8810 *    17.6430 *  0.0000     8          
   609  O     s      9.8017 *     9.8017 *    13.7224 *  0.0000     8          
   610  O     s     13.7224 *    -1.9603 *    13.7224 *  0.0000     8          
   611  O     s     13.7224 *     9.8017 *     9.8017    0.0000     4          
   612  O     s     17.6430 *     5.8810 *     5.8810    0.0000     4          
   613  O     s     -5.8810 *     5.8810 *    17.6430 *  0.0000     8          
   614  O     s     -9.8017 *     9.8017 *    13.7224 *  0.0000     8          
   615  O     s    -13.7224 *    -1.9603 *    13.7224 *  0.0000     8          
   616  O     s    -13.7224 *     9.8017 *     9.8017    0.0000     4          
   617  O     s    -17.6430 *     5.8810 *     5.8810    0.0000     4          
   618  Cl    s      0.0000 *    11.7620 *    15.6827 *  0.0000     8          
   619  Cl    s     11.7620 *     0.0000      15.6827 *  0.0000     4          
   620  Cl    s     15.6827 *     0.0000      11.7620 *  0.0000     4          
   621  Cl    s    -11.7620 *     0.0000      15.6827 *  0.0000     4          
   622  Cl    s    -15.6827 *     0.0000      11.7620 *  0.0000     4          
   623  Cl    s      0.0000 *     0.0000      19.6034 *  0.0000     4          
   624  Cl    s     19.6034 *     0.0000       0.0000    0.0000     1          
   625  Cl    s    -19.6034 *     0.0000       0.0000    0.0000     1          
   626  Cl    s      3.9207 *    11.7620 *    15.6827 *  0.0000     8          
   627  Cl    s     11.7620 *     3.9207 *    15.6827 *  0.0000     8          
   628  Cl    s     15.6827 *     3.9207 *    11.7620 *  0.0000     8          
   629  Cl    s     -3.9207 *    11.7620 *    15.6827 *  0.0000     8          
   630  Cl    s    -11.7620 *     3.9207 *    15.6827 *  0.0000     8          
   631  Cl    s    -15.6827 *     3.9207 *    11.7620 *  0.0000     8          
   632  Cl    s      0.0000 *     3.9207 *    19.6034 *  0.0000     8          
   633  Cl    s      3.9207 *     0.0000      19.6034 *  0.0000     4          
   634  Cl    s     19.6034 *     0.0000       3.9207 *  0.0000     4          
   635  Cl    s     -3.9207 *     0.0000      19.6034 *  0.0000     4          
   636  Cl    s    -19.6034 *     0.0000       3.9207 *  0.0000     4          
--------------------------------------------------------------------------------


  Constraints on symmetry reduced coordinates :

--------------------------------------------------------------------------------
  Constraint no.      Unconstrained     Constrained    Coefficient    
                         Variable         Variable
--------------------------------------------------------------------------------
           1                 4 y             4 z         1.00000
           2                 5 y             5 z         1.00000
           3                 6 y             6 z         1.00000
           4                11 y            11 z         1.00000
           5                12 y            12 z         1.00000
           6                13 y            13 z         1.00000
           7                23 y            23 z         1.00000
           8                24 y            24 z         1.00000
           9                25 y            25 z         1.00000
          10                26 y            26 z         1.00000
          11                40 y            40 z         1.00000
          12                41 y            41 z         1.00000
          13                42 y            42 z         1.00000
          14                43 y            43 z         1.00000
          15                44 y            44 z         1.00000
          16                52 y            52 z         1.00000
          17                53 y            53 z         1.00000
          18                57 y            57 z         1.00000
          19                59 y            59 z         1.00000
          20                71 y            71 z         1.00000
          21                72 y            72 z         1.00000
          22                75 y            75 z         1.00000
          23                76 y            76 z         1.00000
          24                83 y            83 z         1.00000
          25                88 y            88 z         1.00000
          26                89 y            89 z         1.00000
          27               102 y           102 z         1.00000
          28               105 y           105 z         1.00000
          29               108 y           108 z         1.00000
          30               109 y           109 z         1.00000
          31               130 y           130 z         1.00000
          32               132 y           132 z         1.00000
          33               134 y           134 z         1.00000
          34               136 y           136 z         1.00000
          35               143 y           143 z         1.00000
          36               144 y           144 z         1.00000
          37               158 y           158 z         1.00000
          38               161 y           161 z         1.00000
          39               162 y           162 z         1.00000
          40               163 y           163 z         1.00000
          41               164 y           164 z         1.00000
          42               179 y           179 z         1.00000
          43               181 y           181 z         1.00000
          44               184 y           184 z         1.00000
          45               185 y           185 z         1.00000
          46               203 y           203 z         1.00000
          47               205 y           205 z         1.00000
          48               222 y           222 z         1.00000
          49               223 y           223 z         1.00000
          50               234 y           234 z         1.00000
          51               235 y           235 z         1.00000
          52               237 y           237 z         1.00000
          53               239 y           239 z         1.00000
          54               243 y           243 z         1.00000
          55               247 y           247 z         1.00000
          56               255 y           255 z         1.00000
          57               258 y           258 z         1.00000
          58               261 y           261 z         1.00000
          59               282 y           282 z         1.00000
          60               285 y           285 z         1.00000
          61               287 y           287 z         1.00000
          62               289 y           289 z         1.00000
          63               309 y           309 z         1.00000
          64               310 y           310 z         1.00000
          65               313 y           313 z         1.00000
          66               314 y           314 z         1.00000
          67               340 y           340 z         1.00000
          68               342 y           342 z         1.00000
          69               343 y           343 z         1.00000
          70               345 y           345 z         1.00000
          71               383 y           383 z         1.00000
[...]
    556 y          3.920675      3.919563    -0.001113    Cartesian   -0.03
    556 z         15.682702     15.679202    -0.003500    Cartesian   -0.02
    557 x        -11.762026    -11.758153     0.003873    Cartesian   -0.03
    557 y          0.000000      0.000000     0.000000    Cartesian    0.00
    557 z         11.762026     11.759489    -0.002537    Cartesian   -0.02
    558 x        -15.682702    -15.679373     0.003329    Cartesian   -0.02
    558 y          3.920675      3.919965    -0.000711    Cartesian   -0.02
    558 z          3.920675      3.919965    -0.000711    Cartesian   -0.02
    559 x         -1.960338     -1.959714     0.000624    Cartesian   -0.03
    559 y          9.801689      9.800363    -0.001325    Cartesian   -0.01
    559 z         13.722364     13.720861    -0.001503    Cartesian   -0.01
    560 x          1.960338      1.960610     0.000272    Cartesian    0.01
    560 y          9.801689      9.800342    -0.001347    Cartesian   -0.01
    560 z         13.722364     13.720844    -0.001520    Cartesian   -0.01
    561 x          9.801689      9.800748    -0.000941    Cartesian   -0.01
    561 y         -1.960338     -1.960136     0.000201    Cartesian   -0.01
    561 z         13.722364     13.720823    -0.001541    Cartesian   -0.01
    562 x          9.801689      9.800844    -0.000845    Cartesian   -0.01
    562 y          9.801689      9.799848    -0.001841    Cartesian   -0.02
    562 z          9.801689      9.799848    -0.001841    Cartesian   -0.02
    563 x         13.722364     13.720399    -0.001965    Cartesian   -0.01
    563 y         -1.960338     -1.960016     0.000322    Cartesian   -0.02
    563 z          9.801689      9.799479    -0.002209    Cartesian   -0.02
    564 x         -9.801689     -9.800403     0.001286    Cartesian   -0.01
    564 y         -1.960338     -1.960240     0.000098    Cartesian   -0.00
    564 z         13.722364     13.721237    -0.001127    Cartesian   -0.01
    565 x         -9.801689     -9.800605     0.001084    Cartesian   -0.01
    565 y          9.801689      9.801009    -0.000679    Cartesian   -0.01
    565 z          9.801689      9.801009    -0.000679    Cartesian   -0.01
    566 x        -13.722364    -13.721290     0.001074    Cartesian   -0.01
    566 y         -1.960338     -1.960268     0.000069    Cartesian   -0.00
    566 z          9.801689      9.800912    -0.000777    Cartesian   -0.01
    567 x          3.920675      3.922089     0.001413    Cartesian    0.04
    567 y         11.762026     11.758047    -0.003979    Cartesian   -0.03
    567 z         11.762026     11.758047    -0.003979    Cartesian   -0.03
    568 x         11.762026     11.759467    -0.002559    Cartesian   -0.02
    568 y          3.920675      3.919707    -0.000969    Cartesian   -0.02
    568 z         11.762026     11.756586    -0.005441    Cartesian   -0.05
    569 x         -3.920675     -3.918583     0.002092    Cartesian   -0.05
    569 y         11.762026     11.758843    -0.003184    Cartesian   -0.03
    569 z         11.762026     11.758843    -0.003184    Cartesian   -0.03
    570 x        -11.762026    -11.758497     0.003529    Cartesian   -0.03
    570 y          3.920675      3.920574    -0.000102    Cartesian   -0.00
    570 z         11.762026     11.759838    -0.002189    Cartesian   -0.02
    571 x          0.000000      0.001576     0.001576    Cartesian    0.00
    571 y          7.841351      7.840174    -0.001177    Cartesian   -0.02
    571 z         15.682702     15.680019    -0.002683    Cartesian   -0.02
    572 x          7.841351      7.841823     0.000472    Cartesian    0.01
    572 y          0.000000      0.000000     0.000000    Cartesian    0.00
    572 z         15.682702     15.679082    -0.003620    Cartesian   -0.02
    573 x         15.682702     15.679481    -0.003221    Cartesian   -0.02
    573 y          0.000000      0.000000     0.000000    Cartesian    0.00
    573 z          7.841351      7.838483    -0.002868    Cartesian   -0.04
    574 x         -7.841351     -7.839088     0.002263    Cartesian   -0.03
    574 y          0.000000      0.000000     0.000000    Cartesian    0.00
    574 z         15.682702     15.680759    -0.001943    Cartesian   -0.01
    575 x        -15.682702    -15.680284     0.002418    Cartesian   -0.02
    575 y          0.000000      0.000000     0.000000    Cartesian    0.00
    575 z          7.841351      7.840879    -0.000472    Cartesian   -0.01
    576 x         -1.960338     -1.960399    -0.000061    Cartesian    0.00
    576 y         -1.960338     -1.960601    -0.000263    Cartesian    0.01
    576 z         17.643040     17.642359    -0.000681    Cartesian   -0.00
    577 x          1.960338      1.960819     0.000481    Cartesian    0.02
    577 y         -1.960338     -1.960615    -0.000277    Cartesian    0.01
    577 z         17.643040     17.642301    -0.000739    Cartesian   -0.00
    578 x         17.643040     17.642394    -0.000646    Cartesian   -0.00
    578 y         -1.960338     -1.960551    -0.000213    Cartesian    0.01
    578 z         -1.960338     -1.960551    -0.000213    Cartesian    0.01
    579 x        -17.643040    -17.642440     0.000600    Cartesian   -0.00
    579 y         -1.960338     -1.960625    -0.000287    Cartesian    0.01
    579 z         -1.960338     -1.960625    -0.000287    Cartesian    0.01
    580 x          5.881013      5.881433     0.000420    Cartesian    0.01
    580 y          9.801689      9.801133    -0.000556    Cartesian   -0.01
    580 z         13.722364     13.721531    -0.000833    Cartesian   -0.01
    581 x          9.801689      9.801536    -0.000153    Cartesian   -0.00
    581 y          5.881013      5.880985    -0.000028    Cartesian   -0.00
    581 z         13.722364     13.721396    -0.000968    Cartesian   -0.01
    582 x         13.722364     13.721133    -0.001231    Cartesian   -0.01
    582 y          5.881013      5.880514    -0.000499    Cartesian   -0.01
    582 z          9.801689      9.800193    -0.001496    Cartesian   -0.02
    583 x         -5.881013     -5.880617     0.000396    Cartesian   -0.01
    583 y          9.801689      9.801188    -0.000501    Cartesian   -0.01
    583 z         13.722364     13.721661    -0.000703    Cartesian   -0.01
    584 x         -9.801689     -9.801016     0.000673    Cartesian   -0.01
    584 y          5.881013      5.881123     0.000109    Cartesian    0.00
    584 z         13.722364     13.721868    -0.000496    Cartesian   -0.00
    585 x        -13.722364    -13.721865     0.000500    Cartesian   -0.00
    585 y          5.881013      5.881236     0.000223    Cartesian    0.00
    585 z          9.801689      9.801559    -0.000129    Cartesian   -0.00
    586 x          3.920675      3.921585     0.000909    Cartesian    0.02
    586 y          7.841351      7.840257    -0.001094    Cartesian   -0.01
    586 z         15.682702     15.679343    -0.003359    Cartesian   -0.02
    587 x          7.841351      7.842039     0.000688    Cartesian    0.01
    587 y          3.920675      3.919858    -0.000817    Cartesian   -0.02
    587 z         15.682702     15.678782    -0.003920    Cartesian   -0.02
    588 x         15.682702     15.679323    -0.003379    Cartesian   -0.02
    588 y          3.920675      3.919137    -0.001539    Cartesian   -0.04
    588 z          7.841351      7.838742    -0.002609    Cartesian   -0.03
    589 x         -3.920675     -3.918516     0.002159    Cartesian   -0.06
    589 y          7.841351      7.840457    -0.000894    Cartesian   -0.01
    589 z         15.682702     15.680053    -0.002649    Cartesian   -0.02
    590 x         -7.841351     -7.839200     0.002151    Cartesian   -0.03
    590 y          3.920675      3.920065    -0.000611    Cartesian   -0.02
    590 z         15.682702     15.680460    -0.002242    Cartesian   -0.01
    591 x        -15.682702    -15.679941     0.002761    Cartesian   -0.02
    591 y          3.920675      3.920287    -0.000389    Cartesian   -0.01
    591 z          7.841351      7.841008    -0.000343    Cartesian   -0.00
    592 x          7.841351      7.840940    -0.000411    Cartesian   -0.01
    592 y         11.762026     11.758789    -0.003238    Cartesian   -0.03
    592 z         11.762026     11.758789    -0.003238    Cartesian   -0.03
    593 x         11.762026     11.760653    -0.001373    Cartesian   -0.01
    593 y          7.841351      7.838532    -0.002819    Cartesian   -0.04
    593 z         11.762026     11.757859    -0.004168    Cartesian   -0.04
    594 x         -7.841351     -7.838331     0.003020    Cartesian   -0.04
    594 y         11.762026     11.759994    -0.002032    Cartesian   -0.02
    594 z         11.762026     11.759994    -0.002032    Cartesian   -0.02
    595 x        -11.762026    -11.759136     0.002891    Cartesian   -0.02
    595 y          7.841351      7.840052    -0.001299    Cartesian   -0.02
    595 z         11.762026     11.760478    -0.001548    Cartesian   -0.01
    596 x         -1.960338     -1.960086     0.000252    Cartesian   -0.01
    596 y         17.643040     17.642240    -0.000800    Cartesian   -0.00
    596 z          5.881013      5.881059     0.000045    Cartesian    0.00
    597 x          1.960338      1.960767     0.000430    Cartesian    0.02
    597 y         17.643040     17.642106    -0.000933    Cartesian   -0.01
    597 z          5.881013      5.881242     0.000229    Cartesian    0.00
    598 x         17.643040     17.642125    -0.000915    Cartesian   -0.01
    598 y         -1.960338     -1.960301     0.000037    Cartesian   -0.00
    598 z          5.881013      5.880913    -0.000100    Cartesian   -0.00
    599 x        -17.643040    -17.642287     0.000753    Cartesian   -0.00
    599 y         -1.960338     -1.960467    -0.000129    Cartesian    0.01
    599 z          5.881013      5.881263     0.000250    Cartesian    0.00
    600 x          5.881013      5.881485     0.000472    Cartesian    0.01
    600 y         -1.960338     -1.960534    -0.000196    Cartesian    0.01
    600 z         17.643040     17.642127    -0.000912    Cartesian   -0.01
    601 x         -5.881013     -5.880887     0.000126    Cartesian   -0.00
    601 y         -1.960338     -1.960334     0.000004    Cartesian   -0.00
    601 z         17.643040     17.642250    -0.000789    Cartesian   -0.00
    602 x          7.841351      7.840831    -0.000520    Cartesian   -0.01
    602 y          7.841351      7.839282    -0.002069    Cartesian   -0.03
    602 z         15.682702     15.678473    -0.004229    Cartesian   -0.03
    603 x         15.682702     15.678846    -0.003856    Cartesian   -0.02
    603 y          7.841351      7.838325    -0.003026    Cartesian   -0.04
    603 z          7.841351      7.838325    -0.003026    Cartesian   -0.04
    604 x         -7.841351     -7.838600     0.002751    Cartesian   -0.04
    604 y          7.841351      7.839761    -0.001590    Cartesian   -0.02
    604 z         15.682702     15.679584    -0.003118    Cartesian   -0.02
    605 x        -15.682702    -15.679227     0.003475    Cartesian   -0.02
    605 y          7.841351      7.840031    -0.001320    Cartesian   -0.02
    605 z          7.841351      7.840031    -0.001320    Cartesian   -0.02
    606 x         -1.960338     -1.959661     0.000677    Cartesian   -0.03
    606 y         13.722364     13.721129    -0.001235    Cartesian   -0.01
    606 z         13.722364     13.721129    -0.001235    Cartesian   -0.01
    607 x          1.960338      1.960730     0.000392    Cartesian    0.02
    607 y         13.722364     13.721117    -0.001248    Cartesian   -0.01
    607 z         13.722364     13.721117    -0.001248    Cartesian   -0.01
    608 x          5.881013      5.880475    -0.000538    Cartesian   -0.01
    608 y          5.881013      5.880041    -0.000973    Cartesian   -0.02
    608 z         17.643040     17.640652    -0.002387    Cartesian   -0.01
    609 x          9.801689      9.800366    -0.001323    Cartesian   -0.01
    609 y          9.801689      9.799790    -0.001899    Cartesian   -0.02
    609 z         13.722364     13.719904    -0.002460    Cartesian   -0.02
    610 x         13.722364     13.721309    -0.001056    Cartesian   -0.01
    610 y         -1.960338     -1.960137     0.000201    Cartesian   -0.01
    610 z         13.722364     13.720749    -0.001616    Cartesian   -0.01
    611 x         13.722364     13.720024    -0.002341    Cartesian   -0.02
    611 y          9.801689      9.799399    -0.002290    Cartesian   -0.02
    611 z          9.801689      9.799399    -0.002290    Cartesian   -0.02
    612 x         17.643040     17.640602    -0.002437    Cartesian   -0.01
    612 y          5.881013      5.879699    -0.001314    Cartesian   -0.02
    612 z          5.881013      5.879699    -0.001314    Cartesian   -0.02
    613 x         -5.881013     -5.879744     0.001270    Cartesian   -0.02
    613 y          5.881013      5.880101    -0.000913    Cartesian   -0.02
    613 z         17.643040     17.640922    -0.002117    Cartesian   -0.01
    614 x         -9.801689     -9.799869     0.001820    Cartesian   -0.02
    614 y          9.801689      9.800218    -0.001471    Cartesian   -0.02
    614 z         13.722364     13.720434    -0.001930    Cartesian   -0.01
    615 x        -13.722364    -13.721179     0.001186    Cartesian   -0.01
    615 y         -1.960338     -1.960236     0.000101    Cartesian   -0.01
    615 z         13.722364     13.721455    -0.000910    Cartesian   -0.01
    616 x        -13.722364    -13.720316     0.002048    Cartesian   -0.01
    616 y          9.801689      9.800291    -0.001398    Cartesian   -0.01
    616 z          9.801689      9.800291    -0.001398    Cartesian   -0.01
    617 x        -17.643040    -17.640932     0.002108    Cartesian   -0.01
    617 y          5.881013      5.880234    -0.000779    Cartesian   -0.01
    617 z          5.881013      5.880234    -0.000779    Cartesian   -0.01
    618 x          0.000000      0.001284     0.001284    Cartesian    0.00
    618 y         11.762026     11.759046    -0.002981    Cartesian   -0.03
    618 z         15.682702     15.678492    -0.004210    Cartesian   -0.03
    619 x         11.762026     11.759974    -0.002052    Cartesian   -0.02
    619 y          0.000000      0.000000     0.000000    Cartesian    0.00
    619 z         15.682702     15.677646    -0.005056    Cartesian   -0.03
    620 x         15.682702     15.678480    -0.004222    Cartesian   -0.03
    620 y          0.000000      0.000000     0.000000    Cartesian    0.00
    620 z         11.762026     11.757566    -0.004461    Cartesian   -0.04
    621 x        -11.762026    -11.758649     0.003378    Cartesian   -0.03
    621 y          0.000000      0.000000     0.000000    Cartesian    0.00
    621 z         15.682702     15.679117    -0.003585    Cartesian   -0.02
    622 x        -15.682702    -15.678627     0.004075    Cartesian   -0.03
    622 y          0.000000      0.000000     0.000000    Cartesian    0.00
    622 z         11.762026     11.759765    -0.002262    Cartesian   -0.02
    623 x          0.000000      0.001032     0.001032    Cartesian    0.00
    623 y          0.000000      0.000000     0.000000    Cartesian    0.00
    623 z         19.603377     19.598930    -0.004447    Cartesian   -0.02
    624 x         19.603377     19.598322    -0.005056    Cartesian   -0.03
    624 y          0.000000      0.000000     0.000000    Cartesian    0.00
    624 z          0.000000      0.000000     0.000000    Cartesian    0.00
    625 x        -19.603377    -19.599253     0.004124    Cartesian   -0.02
    625 y          0.000000      0.000000     0.000000    Cartesian    0.00
    625 z          0.000000      0.000000     0.000000    Cartesian    0.00
    626 x          3.920675      3.920583    -0.000092    Cartesian   -0.00
    626 y         11.762026     11.758535    -0.003491    Cartesian   -0.03
    626 z         15.682702     15.677635    -0.005067    Cartesian   -0.03
    627 x         11.762026     11.759638    -0.002388    Cartesian   -0.02
    627 y          3.920675      3.919295    -0.001380    Cartesian   -0.04
    627 z         15.682702     15.676970    -0.005732    Cartesian   -0.04
    628 x         15.682702     15.677641    -0.005061    Cartesian   -0.03
    628 y          3.920675      3.919267    -0.001408    Cartesian   -0.04
    628 z         11.762026     11.757461    -0.004566    Cartesian   -0.04
    629 x         -3.920675     -3.918624     0.002051    Cartesian   -0.05
    629 y         11.762026     11.759045    -0.002982    Cartesian   -0.03
    629 z         15.682702     15.677900    -0.004802    Cartesian   -0.03
    630 x        -11.762026    -11.758410     0.003616    Cartesian   -0.03
    630 y          3.920675      3.919728    -0.000948    Cartesian   -0.02
    630 z         15.682702     15.678384    -0.004317    Cartesian   -0.03
    631 x        -15.682702    -15.677971     0.004731    Cartesian   -0.03
    631 y          3.920675      3.919686    -0.000989    Cartesian   -0.03
    631 z         11.762026     11.759442    -0.002584    Cartesian   -0.02
    632 x          0.000000      0.000784     0.000784    Cartesian    0.00
    632 y          3.920675      3.919560    -0.001116    Cartesian   -0.03
    632 z         19.603377     19.597611    -0.005766    Cartesian   -0.03
    633 x          3.920675      3.920594    -0.000081    Cartesian   -0.00
    633 y          0.000000      0.000000     0.000000    Cartesian    0.00
    633 z         19.603377     19.597161    -0.006216    Cartesian   -0.03
    634 x         19.603377     19.597022    -0.006356    Cartesian   -0.03
    634 y          0.000000      0.000000     0.000000    Cartesian    0.00
    634 z          3.920675      3.919186    -0.001490    Cartesian   -0.04
    635 x         -3.920675     -3.918655     0.002021    Cartesian   -0.05
    635 y          0.000000      0.000000     0.000000    Cartesian    0.00
    635 z         19.603377     19.598002    -0.005375    Cartesian   -0.03
    636 x        -19.603377    -19.597945     0.005433    Cartesian   -0.03
    636 y          0.000000      0.000000     0.000000    Cartesian    0.00
    636 z          3.920675      3.919743    -0.000932    Cartesian   -0.02
--------------------------------------------------------------------------------


  Time to end of optimisation  =       80.0188 seconds


  Peak dynamic memory used =    1784.44 MB 


  Timing analysis for GULP :

--------------------------------------------------------------------------------
  Task / Subroutine                                          Time (Seconds)
--------------------------------------------------------------------------------
  Calculation of reciprocal space energy and derivatives          0.0004
  Calculation of reciprocal space energy using symmetry           0.0005
  Calculation of real space energy and derivatives                0.0027
  Calculation of real space energy using symmetry                 0.0060
  Calculation for region 1 energy and derivatives (2-b)          40.6695
  Calculation for region 2a energy                                9.3919
  Calculation for region 2b energy                                0.0017
  Calculation and manipulation of Hessian matrix                 26.9055
  Calculation of matrix inversion                                 2.1897
  Symmetry generation of equivalent positions                     0.0030
--------------------------------------------------------------------------------
  Total CPU time                                                 80.0189
--------------------------------------------------------------------------------


  Dump file written as Li3OCl.grs


  Job Finished at 17:35.26 20th October    2020                               

