********************************************************************************
*                       GENERAL UTILITY LATTICE PROGRAM                        *
*                                 Julian Gale                                  *
*                       Curtin Institute for Computation                       *
*                    School of Molecular and Life Sciences                     *
*                    Curtin University, Western Australia                      *
********************************************************************************
* Version = 5.2.0 * Last modified =  10th September 2020                       *
********************************************************************************
*  optimise     - perform optimisation run                                     *
*  conp         - constant pressure calculation                                *
*  property     - calculate properties for final geometry                      *
*  defect       - perform defect calculation after bulk run                    *
*  compare      - compare initial and final structures                         *
********************************************************************************

  Job Started  at 18:17.51 20th October    2020                               

  Number of CPUs =     1


  Total number of configurations input =      1

********************************************************************************
*  Input for Configuration =   1                                               *
********************************************************************************

  Formula = ClOLi3                                                      

  Number of irreducible atoms/shells =       5


  Total number atoms/shells =       7

  Dimensionality = 3               :  Bulk   


  Symmetry :

  Crystal family                   :  Cubic       
  Crystal class  (Groth - 1921)    :  Cubic Hexakisoctahedral              

  Space group (centrosymmetric)    :  P M 3 M         

  Patterson group                  :  P m -3 m 

  Cartesian lattice vectors (Angstroms) :

        3.918873    0.000000    0.000000
        0.000000    3.918873    0.000000
        0.000000    0.000000    3.918873

  Cell parameters (Angstroms/Degrees):

  a =       3.9189    alpha =  90.0000
  b =       3.9189    beta  =  90.0000
  c =       3.9189    gamma =  90.0000

  Initial cell volume =          60.184349 Angs**3

  Temperature of configuration =   0.00     K 

  Pressure of configuration =         0.000 GPa 

  Fractional coordinates of asymmetric unit :

--------------------------------------------------------------------------------
   No.  Atomic       x           y          z         Charge      Occupancy
        Label      (Frac)      (Frac)     (Frac)        (e)         (Frac)  
--------------------------------------------------------------------------------
      1 Cl    c    0.000000    0.000000    0.000000     1.48500    1.000000    
      2 O     c    0.500000    0.500000    0.500000     0.18300    1.000000    
      3 Li    c    0.500000    0.500000    0.000000     1.00000    1.000000    
      4 Cl    s    0.000000    0.000000    0.000000    -2.48500    1.000000    
      5 O     s    0.500000    0.500000    0.500000    -2.18300    1.000000    
--------------------------------------------------------------------------------


  Constraints : 

--------------------------------------------------------------------------------
  Constraint no.      Unconstrained     Constrained    Coefficient    Offset
                         Variable         Variable
--------------------------------------------------------------------------------
           1              Strain 1        Strain 2       1.00000      0.0000
           2              Strain 1        Strain 3       1.00000      0.0000
--------------------------------------------------------------------------------


********************************************************************************
*  General input information                                                   *
********************************************************************************

  Species output for all configurations : 

--------------------------------------------------------------------------------
  Species    Type    Atomic    Atomic    Charge       Radii (Angs)     Library
                     Number     Mass       (e)     Cova   Ionic  VDW   Symbol
--------------------------------------------------------------------------------
    Li       Core        3       6.94   1.000000   0.680  0.000  1.800          
    O        Core        8      16.00   0.183000   0.730  0.000  1.360          
    O        Shell       8       0.00  -2.183000   0.730  0.000  1.360          
    Cl       Core       17      35.45   1.485000   0.990  0.000  1.650          
    Cl       Shell      17       0.00  -2.485000   0.990  0.000  1.650          
--------------------------------------------------------------------------------


  Lattice summation method               =    Ewald          (3-D)
                                         =    Parry          (2-D)
                                         =    Saunders et al (1-D)
  Accuracy factor for lattice sums       =   12.000


  Analytic derivatives to be used

  Time limit = Infinity

  Maximum range for interatomic potentials =    100000.000000 Angstroms

  General interatomic potentials :

--------------------------------------------------------------------------------
Atom  Types   Potential      Parameter       Value         Units   Cutoffs(Ang)
  1     2                                                            Min /  Max 
--------------------------------------------------------------------------------
O    c O    s Spring (c-s)  Spring k 2       593.72000    eV*Ang^-2 0.000  0.800
                            Spring k 4       0.0000000    eV*Ang^-4 
--------------------------------------------------------------------------------
Cl   c Cl   s Spring (c-s)  Spring k 2       29.380000    eV*Ang^-2 0.000  0.800
                            Spring k 4       0.0000000    eV*Ang^-4 
--------------------------------------------------------------------------------
Li   c Li   c Buckingham    Buckingham A     360.53000    eV        0.000 12.000
                            Buckingham rho  0.16100000    Ang       
                            Buckingham C     0.0000000    eV*Ang^6  
--------------------------------------------------------------------------------
Li   c O    s Buckingham    Buckingham A     292.30000    eV        0.000 12.000
                            Buckingham rho  0.34720000    Ang       
                            Buckingham C     0.0000000    eV*Ang^6  
--------------------------------------------------------------------------------
Li   c Cl   s Buckingham    Buckingham A     421.04000    eV        0.000 12.000
                            Buckingham rho  0.33400000    Ang       
                            Buckingham C     0.0000000    eV*Ang^6  
--------------------------------------------------------------------------------
O    s O    s Buckingham    Buckingham A     22764.300    eV        0.000 12.000
                            Buckingham rho  0.14900000    Ang       
                            Buckingham C     13.190000    eV*Ang^6  
--------------------------------------------------------------------------------
O    s Cl   s Buckingham    Buckingham A     8286.9100    eV        0.000 12.000
                            Buckingham rho  0.25900000    Ang       
                            Buckingham C     62.200000    eV*Ang^6  
--------------------------------------------------------------------------------
Cl   s Cl   s Buckingham    Buckingham A     1227.2000    eV        0.000 12.000
                            Buckingham rho  0.32100000    Ang       
                            Buckingham C     14.530000    eV*Ang^6  
--------------------------------------------------------------------------------

********************************************************************************
*  Output for configuration   1                                                *
********************************************************************************


  Components of energy : 

--------------------------------------------------------------------------------
  Interatomic potentials     =           7.26836263 eV    
  Monopole - monopole (real) =         -11.53475722 eV    
  Monopole - monopole (recip)=         -33.94580548 eV    
  Monopole - monopole (total)=         -45.48056271 eV    
--------------------------------------------------------------------------------
  Total lattice energy       =         -38.21220008 eV    
--------------------------------------------------------------------------------
  Total lattice energy       =           -3686.8932 kJ/(mole unit cells)
--------------------------------------------------------------------------------


  Number of variables =        1

  Maximum number of calculations  =          1000
  Maximum Hessian update interval =            10
  Maximum step size               =   1.000000000
  Maximum parameter tolerance     =   0.000010000
  Maximum function  tolerance     =   0.000010000
  Maximum gradient  tolerance     =   0.001000000
  Maximum gradient  component     =   0.010000000

  Symmetry constrained optimisation

  Symmetry used for second derivatives

  Cell parameters to be optimised using strains

  Newton-Raphson optimiser to be used

  BFGS hessian update to be used

  Lower half triangular hessian to be used

  Start of bulk optimisation :

  Cycle:      0 Energy:       -38.212200  Gnorm:      0.095699  CPU:    0.006
  ** Hessian calculated **
  Cycle:      1 Energy:       -38.212222  Gnorm:      0.000105  CPU:    0.007


  **** Optimisation achieved ****


  Final energy =     -38.21222207 eV
  Final Gnorm  =       0.00000016

  Components of energy : 

--------------------------------------------------------------------------------
  Interatomic potentials     =           7.24743141 eV    
  Monopole - monopole (real) =         -11.52945423 eV    
  Monopole - monopole (recip)=         -33.93019924 eV    
  Monopole - monopole (total)=         -45.45965348 eV    
--------------------------------------------------------------------------------
  Total lattice energy       =         -38.21222207 eV    
--------------------------------------------------------------------------------
  Total lattice energy       =           -3686.8953 kJ/(mole unit cells)
--------------------------------------------------------------------------------

  Final asymmetric unit coordinates :

--------------------------------------------------------------------------------
   No.  Atomic        x           y           z         Radius
        Label       (Frac)      (Frac)      (Frac)       (Angs) 
--------------------------------------------------------------------------------
     1  Cl    c     0.000000    0.000000    0.000000    0.000000
     2  O     c     0.500000    0.500000    0.500000    0.000000
     3  Li    c     0.500000    0.500000    0.000000    0.000000
     4  Cl    s     0.000000    0.000000    0.000000    0.000000
     5  O     s     0.500000    0.500000    0.500000    0.000000
--------------------------------------------------------------------------------

  Final Cartesian lattice vectors (Angstroms) :

        3.920675    0.000000    0.000000
        0.000000    3.920675    0.000000
        0.000000    0.000000    3.920675


  Final cell parameters and derivatives :

--------------------------------------------------------------------------------
       a            3.920675 Angstrom     dE/de1(xx)    -0.000000 eV/strain
       b            3.920675 Angstrom     dE/de2(yy)     0.000000 eV/strain
       c            3.920675 Angstrom     dE/de3(zz)     0.000000 eV/strain
       alpha       90.000000 Degrees      dE/de4(yz)     0.000000 eV/strain
       beta        90.000000 Degrees      dE/de5(xz)     0.000000 eV/strain
       gamma       90.000000 Degrees      dE/de6(xy)     0.000000 eV/strain
--------------------------------------------------------------------------------

  Primitive cell volume =            60.267433 Angs**3

  Density of cell =      1.991276 g/cm**3

  Non-primitive cell volume =            60.267433 Angs**3


  Final internal derivatives :

--------------------------------------------------------------------------------
   No.  Atomic          a             b             c           Radius
        Label          (eV)          (eV)          (eV)        (eV/Angs)
--------------------------------------------------------------------------------
      1 Cl    c       0.000000      0.000000      0.000000      0.000000
      2 O     c       0.000000      0.000000      0.000000      0.000000
      3 Li    c       0.000000      0.000000      0.000000      0.000000
      4 Cl    s       0.000000      0.000000      0.000000      0.000000
      5 O     s       0.000000      0.000000      0.000000      0.000000
--------------------------------------------------------------------------------
  Maximum abs         0.000000      0.000000      0.000000      0.000000
--------------------------------------------------------------------------------

  Comparison of initial and final structures : 

--------------------------------------------------------------------------------
  Parameter   Initial value   Final value   Difference    Units      Percent
--------------------------------------------------------------------------------
    Volume        60.184349     60.267433     0.083084    Angs**3      0.14
    a              3.918873      3.920675     0.001802    Angstroms    0.05
    b              3.918873      3.920675     0.001802    Angstroms    0.05
    c              3.918873      3.920675     0.001802    Angstroms    0.05
    alpha         90.000000     90.000000     0.000000    Degrees      0.00
    beta          90.000000     90.000000     0.000000    Degrees      0.00
    gamma         90.000000     90.000000     0.000000    Degrees      0.00
      1 x          0.000000      0.000000     0.000000    Fractional   0.00
      1 y          0.000000      0.000000     0.000000    Fractional   0.00
      1 z          0.000000      0.000000     0.000000    Fractional   0.00
      2 x          0.500000      0.500000     0.000000    Fractional   0.00
      2 y          0.500000      0.500000     0.000000    Fractional   0.00
      2 z          0.500000      0.500000     0.000000    Fractional   0.00
      3 x          0.500000      0.500000     0.000000    Fractional   0.00
      3 y          0.500000      0.500000     0.000000    Fractional   0.00
      3 z          0.000000      0.000000     0.000000    Fractional   0.00
      4 x          0.000000      0.000000     0.000000    Fractional   0.00
      4 y          0.000000      0.000000     0.000000    Fractional   0.00
      4 z          0.000000      0.000000     0.000000    Fractional   0.00
      5 x          0.500000      0.500000     0.000000    Fractional   0.00
      5 y          0.500000      0.500000     0.000000    Fractional   0.00
      5 z          0.500000      0.500000     0.000000    Fractional   0.00
--------------------------------------------------------------------------------


  Born effective charge tensors : 

-------------------------------------------------------------------------------
  Atom             x           y             z
-------------------------------------------------------------------------------
    1 Cl    x      -0.9489     -0.0000     -0.0000
            y      -0.0000     -0.9489     -0.0000
            z      -0.0000     -0.0000     -0.9489
-------------------------------------------------------------------------------
    2 O     x      -2.4688      0.0000      0.0000
            y       0.0000     -2.4688      0.0000
            z       0.0000      0.0000     -2.4688
-------------------------------------------------------------------------------
    3 Li    x       1.3129      0.0000     -0.0000
            y       0.0000      1.3129      0.0000
            z      -0.0000      0.0000      0.7919
-------------------------------------------------------------------------------




  Elastic Constant Matrix: (Units=GPa)

-------------------------------------------------------------------------------
  Indices      1         2         3         4         5         6    
-------------------------------------------------------------------------------
       1     94.3368   44.9178   44.9178    0.0000   -0.0000    0.0000
       2     44.9178   94.3368   44.9178   -0.0000    0.0000   -0.0000
       3     44.9178   44.9178   94.3368    0.0000   -0.0000    0.0000
       4      0.0000   -0.0000    0.0000   44.9178   -0.0000    0.0000
       5     -0.0000    0.0000   -0.0000   -0.0000   44.9178    0.0000
       6      0.0000   -0.0000    0.0000    0.0000    0.0000   44.9178
-------------------------------------------------------------------------------


  Elastic Compliance Matrix: (Units=1/GPa)

-------------------------------------------------------------------------------
  Indices      1         2         3         4         5         6    
-------------------------------------------------------------------------------
       1    0.015300 -0.004935 -0.004935 -0.000000  0.000000 -0.000000
       2   -0.004935  0.015300 -0.004935  0.000000 -0.000000  0.000000
       3   -0.004935 -0.004935  0.015300 -0.000000  0.000000 -0.000000
       4   -0.000000  0.000000 -0.000000  0.022263  0.000000 -0.000000
       5    0.000000 -0.000000  0.000000  0.000000  0.022263 -0.000000
       6   -0.000000  0.000000 -0.000000 -0.000000 -0.000000  0.022263
-------------------------------------------------------------------------------

  Mechanical properties :

-------------------------------------------------------------------------------
  Convention :                    Reuss         Voigt         Hill
-------------------------------------------------------------------------------
  Bulk  Modulus (GPa)     =      61.39080      61.39080      61.39080
  Shear Modulus (GPa)     =      33.84570      36.83448      35.34009
-------------------------------------------------------------------------------
  Velocity S-wave (km/s)  =       4.12274       4.30092       4.21277
  Velocity P-wave (km/s)  =       7.31386       7.44942       7.38195
-------------------------------------------------------------------------------
  Compressibility (1/GPa) =    0.01628909
-------------------------------------------------------------------------------
  Stress axis :                     x             y             z
-------------------------------------------------------------------------------
  Youngs Moduli (GPa)     =      65.35947      65.35947      65.35947
-------------------------------------------------------------------------------
  Poissons Ratio (x)      =                     0.32256       0.32256
  Poissons Ratio (y)      =       0.32256                     0.32256
  Poissons Ratio (z)      =       0.32256       0.32256
-------------------------------------------------------------------------------


  Piezoelectric Strain Matrix: (Units=C/m**2)

-------------------------------------------------------------------------------
  Indices      1         2         3         4         5         6    
-------------------------------------------------------------------------------
       x    -0.00000   0.00000   0.00000  -0.00000  -0.00000   0.00000
       y    -0.00000   0.00000   0.00000  -0.00000  -0.00000  -0.00000
       z     0.00000   0.00000   0.00000   0.00000  -0.00000  -0.00000
-------------------------------------------------------------------------------


  Piezoelectric Stress Matrix: (Units=10**-11 C/N)

-------------------------------------------------------------------------------
  Indices      1         2         3         4         5         6    
-------------------------------------------------------------------------------
       x    -0.00000   0.00000   0.00000  -0.00000  -0.00000   0.00000
       y    -0.00000   0.00000   0.00000  -0.00000  -0.00000  -0.00000
       z    -0.00000  -0.00000   0.00000   0.00000  -0.00000  -0.00000
-------------------------------------------------------------------------------


  Static dielectric constant tensor : 

-------------------------------------------------------------------------------
              x         y         z
-------------------------------------------------------------------------------
       x    12.11703   0.00000  -0.00000
       y     0.00000  12.11703  -0.00000
       z    -0.00000  -0.00000  12.11703
--------------------------------------------------------------------------------

  High frequency dielectric constant tensor : 

-------------------------------------------------------------------------------
              x         y         z
-------------------------------------------------------------------------------
       x     1.74104   0.00000   0.00000
       y     0.00000   1.74104   0.00000
       z     0.00000   0.00000   1.74104
-------------------------------------------------------------------------------

  Static refractive indices : 

-------------------------------------------------------------------------------
    1 =    3.48095      2 =    3.48095      3 =    3.48095
-------------------------------------------------------------------------------

  High frequency refractive indices : 

-------------------------------------------------------------------------------
    1 =    1.31948      2 =    1.31948      3 =    1.31948
-------------------------------------------------------------------------------


  Time to end of optimisation =       0.0115 seconds

********************************************************************************
*  Defect calculation for configuration   1 :                                  *
********************************************************************************

  Total number of defects =      3

  Total charge on defect  =   1.00

  Defect centre is at   3.3310   0.0000   0.0000  Angs

  Region 1 radius =  20.0000      Number of ions =   3910

  Number of symmetry inequivalent region 1 ions  =    629

  Region 2 radius =  24.0000      Number of ions =   2852

  Number of symmetry inequivalent region 2a ions =    416

  Region 2a mode = 4 : screened electrostatics due to region 1 
                       neglect correction to region 1 forces from 2a
                       region 2a displacements based on defects only

  Region 2a ions will only interact with defects in region 1

  Vacancies:

--------------------------------------------------------------------------------
    Specification type     Symbol/Number         x          y          z
--------------------------------------------------------------------------------
    Cartesian                                0.000000   0.000000   0.000000
    Cartesian                                3.918873   0.000000   0.000000
--------------------------------------------------------------------------------

  Interstitials:

--------------------------------------------------------------------------------
    Specification type     Symbol/Number         x          y          z
--------------------------------------------------------------------------------
    Atom/Fractional         Cl               3.331042   0.000000   0.000000
--------------------------------------------------------------------------------


  Symmetry reduced region 1 (Relative to defect centre) :

--------------------------------------------------------------------------------
   No.   Atomic       x            y             z       Radius  Multiplicity   
         Label      (Angs)       (Angs)        (Angs)    (Angs)     
--------------------------------------------------------------------------------
     1  Li    c     -1.3707 *    -1.9603 *     0.0000    0.0000     4          
     2  Li    c      0.5896 *     1.9603 *     1.9603    0.0000     4          
     3  O     c     -1.3707 *    -1.9603 *    -1.9603    0.0000     4          
     4  Li    c      2.5500 *    -1.9603 *     0.0000    0.0000     4          
     5  O     c      2.5500 *    -1.9603 *    -1.9603    0.0000     4          
     6  Cl    c      0.5896 *     0.0000       3.9207 *  0.0000     4          
     7  Li    c     -3.3310 *     1.9603 *     1.9603    0.0000     4          
     8  Cl    c      4.5103 *     0.0000       0.0000    0.0000     1          
     9  Li    c     -1.3707 *    -1.9603 *     3.9207 *  0.0000     8          
    10  Li    c      2.5500 *    -1.9603 *     3.9207 *  0.0000     8          
    11  Cl    c     -3.3310 *     0.0000       3.9207 *  0.0000     4          
    12  Li    c      4.5103 *     1.9603 *     1.9603    0.0000     4          
    13  Cl    c      0.5896 *     3.9207 *     3.9207    0.0000     4          
    14  Li    c     -5.2914 *    -1.9603 *     0.0000    0.0000     4          
    15  Cl    c      5.8082       0.0000       0.0000    0.0000     1    Defect
    16  O     c     -5.2914 *    -1.9603 *    -1.9603    0.0000     4          
    17  Cl    c      4.5103 *     0.0000       3.9207 *  0.0000     4          
    18  Li    c     -1.3707 *     5.8810 *     0.0000    0.0000     4          
    19  Li    c      0.5896 *     5.8810 *     1.9603 *  0.0000     8          
    20  O     c     -1.3707 *    -1.9603 *     5.8810 *  0.0000     8          
    21  Li    c      2.5500 *     5.8810 *     0.0000    0.0000     4          
    22  Cl    c     -3.3310 *     3.9207 *     3.9207    0.0000     4          
    23  O     c      2.5500 *    -1.9603 *     5.8810 *  0.0000     8          
    24  Li    c      6.4706 *    -1.9603 *     0.0000    0.0000     4          
    25  Li    c     -5.2914 *     3.9207 *    -1.9603 *  0.0000     8          
    26  Li    c     -3.3310 *     5.8810 *     1.9603 *  0.0000     8          
    27  O     c      6.4706 *    -1.9603 *    -1.9603    0.0000     4          
    28  Cl    c      4.5103 *     3.9207 *     3.9207    0.0000     4          
    29  Li    c     -1.3707 *     5.8810 *     3.9207 *  0.0000     8          
    30  Cl    c     -7.2517 *     0.0000       0.0000    0.0000     1          
    31  Li    c      2.5500 *     5.8810 *     3.9207 *  0.0000     8          
    32  Li    c      4.5103 *     5.8810 *     1.9603 *  0.0000     8          
    33  Li    c     -7.2517 *     1.9603 *     1.9603    0.0000     4          
    34  Li    c      6.4706 *    -1.9603 *     3.9207 *  0.0000     8          
    35  Cl    c      0.5896 *     0.0000       7.8414 *  0.0000     4          
    36  Li    c     -5.2914 *     5.8810 *     0.0000    0.0000     4          
    37  O     c     -5.2914 *    -1.9603 *     5.8810 *  0.0000     8          
    38  Li    c     -1.3707 *    -1.9603 *     7.8414 *  0.0000     8          
    39  Cl    c     -7.2517 *     0.0000       3.9207 *  0.0000     4          
    40  Li    c      0.5896 *     5.8810 *     5.8810    0.0000     4          
    41  O     c     -1.3707 *     5.8810 *     5.8810    0.0000     4          
    42  Cl    c      8.4310 *     0.0000       0.0000    0.0000     1          
    43  Li    c      2.5500 *    -1.9603 *     7.8414 *  0.0000     8          
    44  Cl    c     -3.3310 *     0.0000       7.8414 *  0.0000     4          
    45  O     c      2.5500 *     5.8810 *     5.8810    0.0000     4          
    46  Li    c      6.4706 *     5.8810 *     0.0000    0.0000     4          
    47  Cl    c      0.5896 *     3.9207 *     7.8414 *  0.0000     8          
    48  Li    c     -5.2914 *     5.8810 *     3.9207 *  0.0000     8          
    49  Li    c      8.4310 *     1.9603 *     1.9603    0.0000     4          
    50  Li    c     -3.3310 *     5.8810 *     5.8810    0.0000     4          
    51  O     c      6.4706 *    -1.9603 *     5.8810 *  0.0000     8          
    52  Cl    c      4.5103 *     0.0000       7.8414 *  0.0000     4          
    53  Cl    c     -7.2517 *     3.9207 *     3.9207    0.0000     4          
    54  Cl    c      8.4310 *     0.0000       3.9207 *  0.0000     4          
    55  Cl    c     -3.3310 *     3.9207 *     7.8414 *  0.0000     8          
    56  Li    c     -9.2121 *    -1.9603 *     0.0000    0.0000     4          
    57  Li    c      4.5103 *     5.8810 *     5.8810    0.0000     4          
    58  Li    c     -7.2517 *     1.9603 *     5.8810 *  0.0000     8          
    59  Li    c      6.4706 *     3.9207 *     5.8810 *  0.0000     8          
    60  O     c     -9.2121 *    -1.9603 *    -1.9603    0.0000     4          
    61  Li    c     -5.2914 *    -1.9603 *     7.8414 *  0.0000     8          
    62  O     c     -5.2914 *     5.8810 *     5.8810    0.0000     4          
    63  Cl    c      4.5103 *     3.9207 *     7.8414 *  0.0000     8          
    64  Li    c     -1.3707 *     5.8810 *     7.8414 *  0.0000     8          
    65  Li    c     -1.3707 *     9.8017 *     0.0000    0.0000     4          
    66  Li    c      0.5896 *     1.9603 *     9.8017 *  0.0000     8          
    67  O     c     -1.3707 *    -1.9603 *     9.8017 *  0.0000     8          
    68  Cl    c      8.4310 *     3.9207 *     3.9207    0.0000     4          
    69  Li    c      2.5500 *     5.8810 *     7.8414 *  0.0000     8          
    70  Li    c      2.5500 *     9.8017 *     0.0000    0.0000     4          
    71  Li    c     -9.2121 *    -1.9603 *     3.9207 *  0.0000     8          
    72  O     c      2.5500 *    -1.9603 *     9.8017 *  0.0000     8          
    73  Li    c      6.4706 *    -1.9603 *     7.8414 *  0.0000     8          
    74  Li    c      8.4310 *     1.9603 *     5.8810 *  0.0000     8          
    75  Li    c     -3.3310 *     1.9603 *     9.8017 *  0.0000     8          
    76  O     c      6.4706 *     5.8810 *     5.8810    0.0000     4          
    77  Li    c     10.3913 *    -1.9603 *     0.0000    0.0000     4          
    78  Li    c     -1.3707 *     3.9207 *     9.8017 *  0.0000     8          
    79  Cl    c     -7.2517 *     0.0000       7.8414 *  0.0000     4          
    80  O     c     10.3913 *    -1.9603 *    -1.9603    0.0000     4          
    81  Li    c      2.5500 *     3.9207 *     9.8017 *  0.0000     8          
    82  Li    c     -9.2121 *     5.8810 *     0.0000    0.0000     4          
    83  Li    c      4.5103 *     1.9603 *     9.8017 *  0.0000     8          
    84  Li    c     -7.2517 *     5.8810 *     5.8810    0.0000     4          
    85  O     c     -9.2121 *    -1.9603 *     5.8810 *  0.0000     8          
    86  Cl    c      0.5896 *     7.8414 *     7.8414    0.0000     4          
    87  Li    c     -5.2914 *     5.8810 *     7.8414 *  0.0000     8          
    88  Li    c     -5.2914 *     9.8017 *     0.0000    0.0000     4          
    89  Cl    c    -11.1724 *     0.0000       0.0000    0.0000     1          
    90  Li    c     10.3913 *    -1.9603 *     3.9207 *  0.0000     8          
    91  O     c     -5.2914 *    -1.9603 *     9.8017 *  0.0000     8          
    92  Cl    c     -7.2517 *     3.9207 *     7.8414 *  0.0000     8          
    93  Li    c      0.5896 *     5.8810 *     9.8017 *  0.0000     8          
    94  Li    c    -11.1724 *     1.9603 *     1.9603    0.0000     4          
    95  O     c     -1.3707 *     5.8810 *     9.8017 *  0.0000     8          
    96  Cl    c      8.4310 *     0.0000       7.8414 *  0.0000     4          
    97  Cl    c     -3.3310 *     7.8414 *     7.8414    0.0000     4          
    98  Li    c     -9.2121 *     5.8810 *     3.9207 *  0.0000     8          
    99  O     c      2.5500 *     5.8810 *     9.8017 *  0.0000     8          
   100  Li    c      6.4706 *     5.8810 *     7.8414 *  0.0000     8          
   101  Li    c      6.4706 *     9.8017 *     0.0000    0.0000     4          
   102  Cl    c      0.5896 *     0.0000      11.7620 *  0.0000     4          
   103  Li    c     -5.2914 *     9.8017 *     3.9207 *  0.0000     8          
   104  Cl    c    -11.1724 *     0.0000       3.9207 *  0.0000     4          
   105  Li    c      8.4310 *     5.8810 *     5.8810    0.0000     4          
   106  Li    c     -3.3310 *     5.8810 *     9.8017 *  0.0000     8          
   107  O     c      6.4706 *    -1.9603 *     9.8017 *  0.0000     8          
   108  Li    c     10.3913 *     5.8810 *     0.0000    0.0000     4          
   109  Cl    c      4.5103 *     7.8414 *     7.8414    0.0000     4          
   110  Li    c     -1.3707 *    -1.9603 *    11.7620 *  0.0000     8          
   111  O     c     10.3913 *    -1.9603 *     5.8810 *  0.0000     8          
   112  Cl    c      8.4310 *     3.9207 *     7.8414 *  0.0000     8          
   113  Li    c      2.5500 *    -1.9603 *    11.7620 *  0.0000     8          
   114  Cl    c     -3.3310 *     0.0000      11.7620 *  0.0000     4          
   115  Li    c     -9.2121 *    -1.9603 *     7.8414 *  0.0000     8          
   116  Li    c      4.5103 *     5.8810 *     9.8017 *  0.0000     8          
   117  Li    c     -7.2517 *     1.9603 *     9.8017 *  0.0000     8          
   118  Cl    c     12.3517 *     0.0000       0.0000    0.0000     1          
   119  Li    c      6.4706 *     9.8017 *     3.9207 *  0.0000     8          
   120  O     c     -9.2121 *     5.8810 *     5.8810    0.0000     4          
   121  Cl    c      0.5896 *     3.9207 *    11.7620 *  0.0000     8          
   122  Cl    c    -11.1724 *     3.9207 *     3.9207    0.0000     4          
   123  Li    c     10.3913 *     5.8810 *     3.9207 *  0.0000     8          
   124  O     c     -5.2914 *     5.8810 *     9.8017 *  0.0000     8          
   125  Cl    c      4.5103 *     0.0000      11.7620 *  0.0000     4          
   126  Li    c     -1.3707 *     9.8017 *     7.8414 *  0.0000     8          
   127  Li    c     12.3517 *     1.9603 *     1.9603    0.0000     4          
   128  Li    c    -11.1724 *     1.9603 *     5.8810 *  0.0000     8          
   129  Li    c      2.5500 *     9.8017 *     7.8414 *  0.0000     8          
   130  Cl    c     -3.3310 *    11.7620 *     3.9207 *  0.0000     8          
   131  Cl    c     12.3517 *     0.0000       3.9207 *  0.0000     4          
   132  Li    c     -5.2914 *    11.7620 *    -1.9603 *  0.0000     8          
   133  Li    c      8.4310 *     9.8017 *     1.9603 *  0.0000     8          
   134  O     c      6.4706 *     5.8810 *     9.8017 *  0.0000     8          
   135  Li    c     10.3913 *     7.8414 *    -1.9603 *  0.0000     8          
   136  Cl    c      4.5103 *    11.7620 *     3.9207 *  0.0000     8          
   137  Li    c     -1.3707 *     5.8810 *    11.7620 *  0.0000     8          
   138  Cl    c     -7.2517 *     7.8414 *     7.8414    0.0000     4          
   139  Li    c    -13.1327 *    -1.9603 *     0.0000    0.0000     4          
   140  O     c     10.3913 *     5.8810 *     5.8810    0.0000     4          
   141  Li    c      2.5500 *     5.8810 *    11.7620 *  0.0000     8          
   142  O     c    -13.1327 *    -1.9603 *    -1.9603    0.0000     4          
   143  Li    c     -9.2121 *     5.8810 *     7.8414 *  0.0000     8          
   144  Li    c     -9.2121 *     9.8017 *     0.0000    0.0000     4          
   145  Li    c     -7.2517 *     5.8810 *     9.8017 *  0.0000     8          
   146  Cl    c     12.3517 *     3.9207 *     3.9207    0.0000     4          
   147  Li    c      6.4706 *    -1.9603 *    11.7620 *  0.0000     8          
   148  O     c     -9.2121 *     9.8017 *    -1.9603 *  0.0000     8          
   149  Li    c     -5.2914 *     9.8017 *     7.8414 *  0.0000     8          
   150  Cl    c    -11.1724 *     0.0000       7.8414 *  0.0000     4          
   151  Li    c     -1.3707 *    13.7224 *     0.0000    0.0000     4          
   152  Cl    c     -7.2517 *     0.0000      11.7620 *  0.0000     4          
   153  Li    c     12.3517 *     1.9603 *     5.8810 *  0.0000     8          
   154  Li    c    -13.1327 *    -1.9603 *     3.9207 *  0.0000     8          
   155  Li    c      0.5896 *     1.9603 *    13.7224 *  0.0000     8          
   156  Li    c      0.5896 *     9.8017 *     9.8017    0.0000     4          
   157  Li    c    -11.1724 *     5.8810 *     5.8810    0.0000     4          
   158  O     c     -1.3707 *    -1.9603 *    13.7224 *  0.0000     8          
   159  O     c     -1.3707 *     9.8017 *     9.8017    0.0000     4          
   160  Cl    c      8.4310 *     7.8414 *     7.8414    0.0000     4          
   161  Li    c      2.5500 *    13.7224 *     0.0000    0.0000     4          
   162  Li    c     -9.2121 *     9.8017 *     3.9207 *  0.0000     8          
   163  O     c      2.5500 *    -1.9603 *    13.7224 *  0.0000     8          
   164  O     c      2.5500 *     9.8017 *     9.8017    0.0000     4          
   165  Li    c      6.4706 *     9.8017 *     7.8414 *  0.0000     8          
   166  Cl    c      0.5896 *     7.8414 *    11.7620 *  0.0000     8          
   167  Li    c     -5.2914 *     5.8810 *    11.7620 *  0.0000     8          
   168  Cl    c    -11.1724 *     3.9207 *     7.8414 *  0.0000     8          
   169  Li    c      8.4310 *     9.8017 *     5.8810 *  0.0000     8          
   170  Li    c     -3.3310 *     1.9603 *    13.7224 *  0.0000     8          
   171  Li    c     -3.3310 *     9.8017 *     9.8017    0.0000     4          
   172  Li    c     10.3913 *     5.8810 *     7.8414 *  0.0000     8          
   173  Li    c     10.3913 *     9.8017 *     0.0000    0.0000     4          
   174  Li    c     -1.3707 *    13.7224 *     3.9207 *  0.0000     8          
   175  Cl    c     -7.2517 *     3.9207 *    11.7620 *  0.0000     8          
   176  Li    c    -13.1327 *     5.8810 *     0.0000    0.0000     4          
   177  O     c     10.3913 *    -1.9603 *     9.8017 *  0.0000     8          
   178  Li    c     14.3120 *    -1.9603 *     0.0000    0.0000     4          
   179  Cl    c      8.4310 *     0.0000      11.7620 *  0.0000     4          
   180  Li    c      2.5500 *    13.7224 *     3.9207 *  0.0000     8          
   181  O     c    -13.1327 *    -1.9603 *     5.8810 *  0.0000     8          
   182  Cl    c     -3.3310 *    11.7620 *     7.8414 *  0.0000     8          
   183  Li    c      4.5103 *     1.9603 *    13.7224 *  0.0000     8          
   184  Li    c      4.5103 *     9.8017 *     9.8017    0.0000     4          
   185  O     c     14.3120 *    -1.9603 *    -1.9603    0.0000     4          
   186  Cl    c     12.3517 *     0.0000       7.8414 *  0.0000     4          
   187  Li    c      6.4706 *     5.8810 *    11.7620 *  0.0000     8          
   188  O     c     -9.2121 *     9.8017 *     5.8810 *  0.0000     8          
   189  Li    c     -5.2914 *    13.7224 *     0.0000    0.0000     4          
   190  Li    c     10.3913 *     9.8017 *     3.9207 *  0.0000     8          
   191  O     c     -5.2914 *    13.7224 *    -1.9603 *  0.0000     8          
   192  O     c     -5.2914 *     9.8017 *     9.8017    0.0000     4          
   193  Cl    c      4.5103 *    11.7620 *     7.8414 *  0.0000     8          
   194  Li    c     12.3517 *     5.8810 *     5.8810    0.0000     4          
   195  Li    c    -13.1327 *     5.8810 *     3.9207 *  0.0000     8          
   196  Li    c      0.5896 *     5.8810 *    13.7224 *  0.0000     8          
   197  Li    c     14.3120 *    -1.9603 *     3.9207 *  0.0000     8          
   198  Li    c    -11.1724 *     1.9603 *     9.8017 *  0.0000     8          
   199  O     c     -1.3707 *     5.8810 *    13.7224 *  0.0000     8          
   200  Cl    c      8.4310 *     3.9207 *    11.7620 *  0.0000     8          
   201  Li    c     -9.2121 *    -1.9603 *    11.7620 *  0.0000     8          
   202  Cl    c    -15.0931 *     0.0000       0.0000    0.0000     1          
   203  O     c      2.5500 *     5.8810 *    13.7224 *  0.0000     8          
   204  Cl    c     12.3517 *     3.9207 *     7.8414 *  0.0000     8          
   205  Li    c      6.4706 *    13.7224 *     0.0000    0.0000     4          
   206  Li    c     -5.2914 *    13.7224 *     3.9207 *  0.0000     8          
   207  Li    c     -3.3310 *     5.8810 *    13.7224 *  0.0000     8          
   208  O     c      6.4706 *    -1.9603 *    13.7224 *  0.0000     8          
   209  O     c      6.4706 *     9.8017 *     9.8017    0.0000     4          
   210  Li    c    -15.0931 *     1.9603 *     1.9603    0.0000     4          
   211  Li    c     -1.3707 *     9.8017 *    11.7620 *  0.0000     8          
   212  Li    c    -13.1327 *    -1.9603 *     7.8414 *  0.0000     8          
   213  O     c     10.3913 *     5.8810 *     9.8017 *  0.0000     8          
   214  Li    c     14.3120 *     5.8810 *     0.0000    0.0000     4          
   215  Li    c      2.5500 *     9.8017 *    11.7620 *  0.0000     8          
   216  O     c    -13.1327 *     5.8810 *     5.8810    0.0000     4          
   217  Li    c     -9.2121 *     9.8017 *     7.8414 *  0.0000     8          
   218  Cl    c    -15.0931 *     0.0000       3.9207 *  0.0000     4          
   219  Li    c      4.5103 *     5.8810 *    13.7224 *  0.0000     8          
   220  O     c     14.3120 *    -1.9603 *     5.8810 *  0.0000     8          
   221  Li    c     -7.2517 *     1.9603 *    13.7224 *  0.0000     8          
   222  Li    c     -7.2517 *     9.8017 *     9.8017    0.0000     4          
   223  Li    c      6.4706 *    13.7224 *     3.9207 *  0.0000     8          
   224  Cl    c      0.5896 *     0.0000      15.6827 *  0.0000     4          
   225  Cl    c    -11.1724 *     7.8414 *     7.8414    0.0000     4          
   226  Li    c     10.3913 *    11.7620 *    -1.9603 *  0.0000     8          
   227  O     c     -5.2914 *     5.8810 *    13.7224 *  0.0000     8          
   228  Li    c     -1.3707 *    -1.9603 *    15.6827 *  0.0000     8          
   229  Li    c     -1.3707 *    13.7224 *     7.8414 *  0.0000     8          
   230  Cl    c     -7.2517 *     7.8414 *    11.7620 *  0.0000     8          
   231  Li    c     12.3517 *     1.9603 *     9.8017 *  0.0000     8          
   232  Li    c     14.3120 *     5.8810 *     3.9207 *  0.0000     8          
   233  Li    c    -11.1724 *     5.8810 *     9.8017 *  0.0000     8          
   234  Li    c      2.5500 *    -1.9603 *    15.6827 *  0.0000     8          
   235  Li    c      2.5500 *     7.8414 *    13.7224 *  0.0000     8          
   236  Cl    c     -3.3310 *     0.0000      15.6827 *  0.0000     4          
   237  Li    c     -9.2121 *     5.8810 *    11.7620 *  0.0000     8          
   238  Cl    c    -15.0931 *     3.9207 *     3.9207    0.0000     4          
   239  Cl    c      0.5896 *     3.9207 *    15.6827 *  0.0000     8          
   240  Li    c     -5.2914 *     9.8017 *    11.7620 *  0.0000     8          
   241  Cl    c    -11.1724 *     0.0000      11.7620 *  0.0000     4          
   242  Li    c      8.4310 *     1.9603 *    13.7224 *  0.0000     8          
   243  Li    c      8.4310 *     9.8017 *     9.8017    0.0000     4          
   244  O     c      6.4706 *     5.8810 *    13.7224 *  0.0000     8          
   245  Cl    c     16.2723 *     0.0000       0.0000    0.0000     1          
   246  Li    c     10.3913 *     9.8017 *     7.8414 *  0.0000     8          
   247  Li    c    -15.0931 *     5.8810 *     1.9603 *  0.0000     8          
   248  Cl    c      4.5103 *     0.0000      15.6827 *  0.0000     4          
   249  Li    c    -13.1327 *     5.8810 *     7.8414 *  0.0000     8          
   250  Li    c    -13.1327 *     9.8017 *     0.0000    0.0000     4          
   251  Li    c     14.3120 *    -1.9603 *     7.8414 *  0.0000     8          
   252  Cl    c      8.4310 *     7.8414 *    11.7620 *  0.0000     8          
   253  O     c    -13.1327 *    -1.9603 *     9.8017 *  0.0000     8          
   254  Cl    c     -3.3310 *     3.9207 *    15.6827 *  0.0000     8          
   255  Li    c     16.2723 *     1.9603 *     1.9603    0.0000     4          
   256  Li    c     -9.2121 *    13.7224 *     0.0000    0.0000     4          
   257  O     c     14.3120 *     5.8810 *     5.8810    0.0000     4          
   258  Li    c     -7.2517 *     5.8810 *    13.7224 *  0.0000     8          
   259  Cl    c     12.3517 *     7.8414 *     7.8414    0.0000     4          
   260  Li    c      6.4706 *     9.8017 *    11.7620 *  0.0000     8          
   261  O     c     -9.2121 *    13.7224 *    -1.9603 *  0.0000     8          
   262  O     c     -9.2121 *     9.8017 *     9.8017    0.0000     4          
   263  Cl    c      0.5896 *    11.7620 *    11.7620    0.0000     4          
   264  Li    c     -5.2914 *    -1.9603 *    15.6827 *  0.0000     8          
   265  Li    c     -5.2914 *    13.7224 *     7.8414 *  0.0000     8          
   266  Cl    c    -11.1724 *     3.9207 *    11.7620 *  0.0000     8          
   267  Cl    c     16.2723 *     0.0000       3.9207 *  0.0000     4          
   268  Li    c     10.3913 *     5.8810 *    11.7620 *  0.0000     8          
   269  Cl    c      4.5103 *     3.9207 *    15.6827 *  0.0000     8          
   270  Li    c     -1.3707 *     5.8810 *    15.6827 *  0.0000     8          
   271  Li    c     12.3517 *     5.8810 *     9.8017 *  0.0000     8          
   272  Li    c    -13.1327 *     3.9207 *     9.8017 *  0.0000     8          
   273  Li    c      0.5896 *     9.8017 *    13.7224 *  0.0000     8          
   274  O     c     -1.3707 *     9.8017 *    13.7224 *  0.0000     8          
   275  Li    c      2.5500 *     5.8810 *    15.6827 *  0.0000     8          
   276  Cl    c     -3.3310 *    11.7620 *    11.7620    0.0000     4          
   277  Li    c     -9.2121 *    13.7224 *     3.9207 *  0.0000     8          
   278  Cl    c    -15.0931 *     0.0000       7.8414 *  0.0000     4          
   279  O     c      2.5500 *     9.8017 *    13.7224 *  0.0000     8          
   280  Cl    c     12.3517 *     0.0000      11.7620 *  0.0000     4          
   281  Li    c      6.4706 *    -1.9603 *    15.6827 *  0.0000     8          
   282  Li    c      6.4706 *     7.8414 *    13.7224 *  0.0000     8          
   283  Li    c      8.4310 *     5.8810 *    13.7224 *  0.0000     8          
   284  Li    c    -17.0534 *    -1.9603 *     0.0000    0.0000     4          
   285  Li    c     -3.3310 *     9.8017 *    13.7224 *  0.0000     8          
   286  Cl    c     16.2723 *     3.9207 *     3.9207    0.0000     4          
   287  Li    c     10.3913 *    13.7224 *     0.0000    0.0000     4          
   288  Li    c    -15.0931 *     5.8810 *     5.8810    0.0000     4          
   289  Cl    c      4.5103 *    11.7620 *    11.7620    0.0000     4          
   290  O     c    -17.0534 *    -1.9603 *    -1.9603    0.0000     4          
   291  Cl    c     -7.2517 *     0.0000      15.6827 *  0.0000     4          
   292  O     c     10.3913 *    -1.9603 *    13.7224 *  0.0000     8          
   293  O     c     10.3913 *     9.8017 *     9.8017    0.0000     4          
   294  Li    c     14.3120 *     7.8414 *     5.8810 *  0.0000     8          
   295  Li    c     14.3120 *     9.8017 *     0.0000    0.0000     4          
   296  O     c    -13.1327 *     5.8810 *     9.8017 *  0.0000     8          
   297  Li    c     16.2723 *     1.9603 *     5.8810 *  0.0000     8          
   298  Cl    c    -15.0931 *     3.9207 *     7.8414 *  0.0000     8          
   299  Li    c      4.5103 *     9.8017 *    13.7224 *  0.0000     8          
   300  O     c     14.3120 *    -1.9603 *     9.8017 *  0.0000     8          
   301  Cl    c     12.3517 *     3.9207 *    11.7620 *  0.0000     8          
   302  O     c     -9.2121 *    13.7224 *     5.8810 *  0.0000     8          
   303  Cl    c      0.5896 *     7.8414 *    15.6827 *  0.0000     8          
   304  Li    c     -5.2914 *     5.8810 *    15.6827 *  0.0000     8          
   305  Li    c    -17.0534 *    -1.9603 *     3.9207 *  0.0000     8          
   306  Li    c     10.3913 *    13.7224 *     3.9207 *  0.0000     8          
   307  O     c     -5.2914 *     9.8017 *    13.7224 *  0.0000     8          
   308  Li    c     -1.3707 *    17.6430 *     0.0000    0.0000     4          
   309  Cl    c     -7.2517 *     3.9207 *    15.6827 *  0.0000     8          
   310  Li    c    -13.1327 *    -1.9603 *    11.7620 *  0.0000     8          
   311  Li    c      0.5896 *     1.9603 *    17.6430 *  0.0000     8          
   312  Li    c     14.3120 *     9.8017 *     3.9207 *  0.0000     8          
   313  Li    c    -11.1724 *     1.9603 *    13.7224 *  0.0000     8          
   314  Li    c    -11.1724 *     9.8017 *     9.8017    0.0000     4          
   315  O     c     -1.3707 *    -1.9603 *    17.6430 *  0.0000     8          
   316  Cl    c      8.4310 *     0.0000      15.6827 *  0.0000     4          
   317  Li    c      2.5500 *    17.6430 *     0.0000    0.0000     4          
   318  Cl    c     -3.3310 *     7.8414 *    15.6827 *  0.0000     8          
   319  Li    c     -9.2121 *     9.8017 *    11.7620 *  0.0000     8          
   320  O     c      2.5500 *    17.6430 *    -1.9603 *  0.0000     8          
   321  Li    c      6.4706 *     5.8810 *    15.6827 *  0.0000     8          
   322  Cl    c    -11.1724 *     7.8414 *    11.7620 *  0.0000     8          
   323  Li    c    -17.0534 *     5.8810 *     0.0000    0.0000     4          
   324  Li    c     -3.3310 *     1.9603 *    17.6430 *  0.0000     8          
   325  O     c      6.4706 *     9.8017 *    13.7224 *  0.0000     8          
   326  Cl    c     16.2723 *     0.0000       7.8414 *  0.0000     4          
   327  Li    c    -15.0931 *     1.9603 *     9.8017 *  0.0000     8          
   328  Cl    c      4.5103 *     7.8414 *    15.6827 *  0.0000     8          
   329  Li    c     -1.3707 *    13.7224 *    11.7620 *  0.0000     8          
   330  Li    c     -1.3707 *    17.6430 *     3.9207 *  0.0000     8          
   331  O     c    -17.0534 *    -1.9603 *     5.8810 *  0.0000     8          
   332  Cl    c     -7.2517 *    11.7620 *    11.7620    0.0000     4          
   333  Li    c    -13.1327 *     7.8414 *     9.8017 *  0.0000     8          
   334  O     c     10.3913 *     5.8810 *    13.7224 *  0.0000     8          
   335  Cl    c      8.4310 *     3.9207 *    15.6827 *  0.0000     8          
   336  Li    c      2.5500 *    13.7224 *    11.7620 *  0.0000     8          
   337  Li    c      2.5500 *    17.6430 *     3.9207 *  0.0000     8          
   338  Li    c     16.2723 *     5.8810 *     5.8810    0.0000     4          
   339  Li    c     -9.2121 *    -1.9603 *    15.6827 *  0.0000     8          
   340  Li    c     -9.2121 *    13.7224 *     7.8414 *  0.0000     8          
   341  Li    c      4.5103 *     1.9603 *    17.6430 *  0.0000     8          
   342  O     c     14.3120 *     5.8810 *     9.8017 *  0.0000     8          
   343  Li    c     18.2327 *    -1.9603 *     0.0000    0.0000     4          
   344  Li    c     -7.2517 *     9.8017 *    13.7224 *  0.0000     8          
   345  Li    c     -5.2914 *    17.6430 *     0.0000    0.0000     4          
   346  O     c     18.2327 *    -1.9603 *    -1.9603    0.0000     4          
   347  Li    c    -17.0534 *     3.9207 *     5.8810 *  0.0000     8          
   348  Cl    c     16.2723 *     3.9207 *     7.8414 *  0.0000     8          
   349  Li    c     10.3913 *     9.8017 *    11.7620 *  0.0000     8          
   350  O     c     -5.2914 *    -1.9603 *    17.6430 *  0.0000     8          
   351  Li    c     -1.3707 *     9.8017 *    15.6827 *  0.0000     8          
   352  Li    c     12.3517 *     1.9603 *    13.7224 *  0.0000     8          
   353  Li    c     12.3517 *     9.8017 *     9.8017    0.0000     4          
   354  Li    c    -13.1327 *     5.8810 *    11.7620 *  0.0000     8          
   355  Li    c      0.5896 *     5.8810 *    17.6430 *  0.0000     8          
   356  Li    c     14.3120 *    -1.9603 *    11.7620 *  0.0000     8          
   357  Li    c    -11.1724 *     5.8810 *    13.7224 *  0.0000     8          
   358  O     c     -1.3707 *     5.8810 *    17.6430 *  0.0000     8          
   359  Cl    c      8.4310 *    11.7620 *    11.7620    0.0000     4          
   360  Li    c      2.5500 *     9.8017 *    15.6827 *  0.0000     8          
   361  Cl    c    -15.0931 *     7.8414 *     7.8414    0.0000     4          
   362  Li    c     18.2327 *    -1.9603 *     3.9207 *  0.0000     8          
   363  O     c      2.5500 *     5.8810 *    17.6430 *  0.0000     8          
   364  Cl    c     12.3517 *     7.8414 *    11.7620 *  0.0000     8          
   365  Li    c      6.4706 *    17.6430 *     0.0000    0.0000     4          
   366  Li    c     -5.2914 *    13.7224 *    11.7620 *  0.0000     8          
   367  Li    c     -5.2914 *     3.9207 *    17.6430 *  0.0000     8          
   368  Li    c      8.4310 *     9.8017 *    13.7224 *  0.0000     8          
   369  Li    c    -17.0534 *    -1.9603 *     7.8414 *  0.0000     8          
   370  Li    c     -3.3310 *     5.8810 *    17.6430 *  0.0000     8          
   371  O     c      6.4706 *    -1.9603 *    17.6430 *  0.0000     8          
   372  Li    c     10.3913 *    -1.9603 *    15.6827 *  0.0000     8          
   373  Li    c     10.3913 *    13.7224 *     7.8414 *  0.0000     8          
   374  Li    c    -15.0931 *     5.8810 *     9.8017 *  0.0000     8          
   375  O     c    -17.0534 *     5.8810 *     5.8810    0.0000     4          
   376  Cl    c     -7.2517 *     7.8414 *    15.6827 *  0.0000     8          
   377  Li    c    -13.1327 *    13.7224 *     0.0000    0.0000     4          
   378  Cl    c    -19.0137 *     0.0000       0.0000    0.0000     1          
   379  Li    c     14.3120 *     9.8017 *     7.8414 *  0.0000     8          
   380  O     c    -13.1327 *    -1.9603 *    13.7224 *  0.0000     8          
   381  O     c    -13.1327 *     9.8017 *     9.8017    0.0000     4          
   382  Li    c     16.2723 *     9.8017 *     1.9603 *  0.0000     8          
   383  Li    c     -9.2121 *     5.8810 *    15.6827 *  0.0000     8          
   384  Cl    c    -15.0931 *     0.0000      11.7620 *  0.0000     4          
   385  Li    c      4.5103 *    17.6430 *     5.8810 *  0.0000     8          
   386  Li    c     18.2327 *     5.8810 *     0.0000    0.0000     4          
   387  Li    c     -7.2517 *    17.6430 *     1.9603 *  0.0000     8          
   388  Li    c      6.4706 *    13.7224 *    11.7620 *  0.0000     8          
   389  Li    c      6.4706 *    17.6430 *     3.9207 *  0.0000     8          
   390  Li    c    -19.0137 *     1.9603 *     1.9603    0.0000     4          
   391  O     c     -9.2121 *     9.8017 *    13.7224 *  0.0000     8          
   392  Li    c     -5.2914 *     9.8017 *    15.6827 *  0.0000     8          
   393  Cl    c    -11.1724 *     0.0000      15.6827 *  0.0000     4          
   394  O     c     18.2327 *     5.8810 *    -1.9603 *  0.0000     8          
   395  O     c     -5.2914 *     5.8810 *    17.6430 *  0.0000     8          
   396  Li    c     -1.3707 *    17.6430 *     7.8414 *  0.0000     8          
   397  Li    c     12.3517 *     5.8810 *    13.7224 *  0.0000     8          
   398  Li    c    -13.1327 *     3.9207 *    13.7224 *  0.0000     8          
   399  Cl    c    -19.0137 *     0.0000       3.9207 *  0.0000     4          
   400  Li    c      0.5896 *    13.7224 *    13.7224    0.0000     4          
   401  Li    c     14.3120 *     5.8810 *    11.7620 *  0.0000     8          
   402  O     c     -1.3707 *    13.7224 *    13.7224    0.0000     4          
   403  Cl    c      8.4310 *     7.8414 *    15.6827 *  0.0000     8          
   404  Li    c      2.5500 *    17.6430 *     7.8414 *  0.0000     8          
   405  Cl    c    -15.0931 *     3.9207 *    11.7620 *  0.0000     8          
   406  Li    c     18.2327 *     5.8810 *     3.9207 *  0.0000     8          
   407  O     c      2.5500 *    13.7224 *    13.7224    0.0000     4          
   408  Li    c      6.4706 *     9.8017 *    15.6827 *  0.0000     8          
   409  Cl    c      0.5896 *    11.7620 *    15.6827 *  0.0000     8          
   410  Cl    c      0.5896 *     0.0000      19.6034 *  0.0000     4          
   411  Cl    c    -11.1724 *     3.9207 *    15.6827 *  0.0000     8          
   412  Li    c      8.4310 *     1.9603 *    17.6430 *  0.0000     8          
   413  Li    c    -17.0534 *     9.8017 *     0.0000    0.0000     4          
   414  Li    c    -17.0534 *     7.8414 *     5.8810 *  0.0000     8          
   415  Li    c     -3.3310 *    13.7224 *    13.7224    0.0000     4          
   416  O     c      6.4706 *     5.8810 *    17.6430 *  0.0000     8          
   417  Cl    c     16.2723 *     7.8414 *     7.8414    0.0000     4          
   418  Li    c     10.3913 *     5.8810 *    15.6827 *  0.0000     8          
   419  Li    c     -1.3707 *    -1.9603 *    19.6034 *  0.0000     8          
   420  O     c    -17.0534 *     9.8017 *    -1.9603 *  0.0000     8          
   421  Cl    c    -19.0137 *     3.9207 *     3.9207    0.0000     4          
   422  O     c     10.3913 *     9.8017 *    13.7224 *  0.0000     8          
   423  Li    c     14.3120 *    13.7224 *     0.0000    0.0000     4          
   424  Li    c      2.5500 *    19.6034 *    -1.9603 *  0.0000     8          
   425  O     c    -13.1327 *     5.8810 *    13.7224 *  0.0000     8          
   426  Cl    c     -3.3310 *    11.7620 *    15.6827 *  0.0000     8          
   427  Cl    c     -3.3310 *     0.0000      19.6034 *  0.0000     4          
   428  Li    c     16.2723 *     9.8017 *     5.8810 *  0.0000     8          
   429  Li    c     -9.2121 *    17.6430 *     0.0000    0.0000     4          
   430  Li    c      4.5103 *    13.7224 *    13.7224    0.0000     4          
   431  O     c     14.3120 *    -1.9603 *    13.7224 *  0.0000     8          
   432  O     c     14.3120 *     9.8017 *     9.8017    0.0000     4          
   433  Li    c     18.2327 *    -1.9603 *     7.8414 *  0.0000     8          
   434  Li    c     -7.2517 *    17.6430 *     5.8810 *  0.0000     8          
   435  Cl    c     12.3517 *     0.0000      15.6827 *  0.0000     4          
   436  Li    c    -19.0137 *     1.9603 *     5.8810 *  0.0000     8          
   437  O     c     -9.2121 *    -1.9603 *    17.6430 *  0.0000     8          
   438  O     s     -1.3707 *    -1.9603 *    -1.9603    0.0000     4          
   439  O     s      2.5500 *    -1.9603 *    -1.9603    0.0000     4          
   440  Cl    s      0.5896 *     0.0000       3.9207 *  0.0000     4          
   441  Cl    s      4.5103 *     0.0000       0.0000    0.0000     1          
   442  Cl    s     -3.3310 *     0.0000       3.9207 *  0.0000     4          
   443  Cl    s      0.5896 *     3.9207 *     3.9207    0.0000     4          
   444  Cl    s      5.8082       0.0000       0.0000    0.0000     1    Defect
   445  O     s     -5.2914 *    -1.9603 *    -1.9603    0.0000     4          
   446  Cl    s      4.5103 *     0.0000       3.9207 *  0.0000     4          
   447  O     s     -1.3707 *    -1.9603 *     5.8810 *  0.0000     8          
   448  Cl    s     -3.3310 *     3.9207 *     3.9207    0.0000     4          
   449  O     s      2.5500 *    -1.9603 *     5.8810 *  0.0000     8          
   450  O     s      6.4706 *    -1.9603 *    -1.9603    0.0000     4          
   451  Cl    s      4.5103 *     3.9207 *     3.9207    0.0000     4          
   452  Cl    s     -7.2517 *     0.0000       0.0000    0.0000     1          
   453  Cl    s      0.5896 *     0.0000       7.8414 *  0.0000     4          
   454  O     s     -5.2914 *    -1.9603 *     5.8810 *  0.0000     8          
   455  Cl    s     -7.2517 *     0.0000       3.9207 *  0.0000     4          
   456  O     s     -1.3707 *     5.8810 *     5.8810    0.0000     4          
   457  Cl    s      8.4310 *     0.0000       0.0000    0.0000     1          
   458  Cl    s     -3.3310 *     0.0000       7.8414 *  0.0000     4          
   459  O     s      2.5500 *     5.8810 *     5.8810    0.0000     4          
   460  Cl    s      0.5896 *     3.9207 *     7.8414 *  0.0000     8          
   461  O     s      6.4706 *    -1.9603 *     5.8810 *  0.0000     8          
   462  Cl    s      4.5103 *     0.0000       7.8414 *  0.0000     4          
   463  Cl    s     -7.2517 *     3.9207 *     3.9207    0.0000     4          
   464  Cl    s      8.4310 *     0.0000       3.9207 *  0.0000     4          
   465  Cl    s     -3.3310 *     3.9207 *     7.8414 *  0.0000     8          
   466  O     s     -9.2121 *    -1.9603 *    -1.9603    0.0000     4          
   467  O     s     -5.2914 *     5.8810 *     5.8810    0.0000     4          
   468  Cl    s      4.5103 *     3.9207 *     7.8414 *  0.0000     8          
   469  O     s     -1.3707 *    -1.9603 *     9.8017 *  0.0000     8          
   470  Cl    s      8.4310 *     3.9207 *     3.9207    0.0000     4          
   471  O     s      2.5500 *    -1.9603 *     9.8017 *  0.0000     8          
   472  O     s      6.4706 *     5.8810 *     5.8810    0.0000     4          
   473  Cl    s     -7.2517 *     0.0000       7.8414 *  0.0000     4          
   474  O     s     10.3913 *    -1.9603 *    -1.9603    0.0000     4          
   475  O     s     -9.2121 *    -1.9603 *     5.8810 *  0.0000     8          
   476  Cl    s      0.5896 *     7.8414 *     7.8414    0.0000     4          
   477  Cl    s    -11.1724 *     0.0000       0.0000    0.0000     1          
   478  O     s     -5.2914 *    -1.9603 *     9.8017 *  0.0000     8          
   479  Cl    s     -7.2517 *     3.9207 *     7.8414 *  0.0000     8          
   480  O     s     -1.3707 *     5.8810 *     9.8017 *  0.0000     8          
   481  Cl    s      8.4310 *     0.0000       7.8414 *  0.0000     4          
   482  Cl    s     -3.3310 *     7.8414 *     7.8414    0.0000     4          
   483  O     s      2.5500 *     5.8810 *     9.8017 *  0.0000     8          
   484  Cl    s      0.5896 *     0.0000      11.7620 *  0.0000     4          
   485  Cl    s    -11.1724 *     0.0000       3.9207 *  0.0000     4          
   486  O     s      6.4706 *    -1.9603 *     9.8017 *  0.0000     8          
   487  Cl    s      4.5103 *     7.8414 *     7.8414    0.0000     4          
   488  O     s     10.3913 *    -1.9603 *     5.8810 *  0.0000     8          
   489  Cl    s      8.4310 *     3.9207 *     7.8414 *  0.0000     8          
   490  Cl    s     -3.3310 *     0.0000      11.7620 *  0.0000     4          
   491  Cl    s     12.3517 *     0.0000       0.0000    0.0000     1          
   492  O     s     -9.2121 *     5.8810 *     5.8810    0.0000     4          
   493  Cl    s      0.5896 *     3.9207 *    11.7620 *  0.0000     8          
   494  Cl    s    -11.1724 *     3.9207 *     3.9207    0.0000     4          
   495  O     s     -5.2914 *     5.8810 *     9.8017 *  0.0000     8          
   496  Cl    s      4.5103 *     0.0000      11.7620 *  0.0000     4          
   497  Cl    s     -3.3310 *    11.7620 *     3.9207 *  0.0000     8          
   498  Cl    s     12.3517 *     0.0000       3.9207 *  0.0000     4          
   499  O     s      6.4706 *     5.8810 *     9.8017 *  0.0000     8          
   500  Cl    s      4.5103 *    11.7620 *     3.9207 *  0.0000     8          
   501  Cl    s     -7.2517 *     7.8414 *     7.8414    0.0000     4          
   502  O     s     10.3913 *     5.8810 *     5.8810    0.0000     4          
   503  O     s    -13.1327 *    -1.9603 *    -1.9603    0.0000     4          
   504  Cl    s     12.3517 *     3.9207 *     3.9207    0.0000     4          
   505  O     s     -9.2121 *     9.8017 *    -1.9603 *  0.0000     8          
   506  Cl    s    -11.1724 *     0.0000       7.8414 *  0.0000     4          
   507  Cl    s     -7.2517 *     0.0000      11.7620 *  0.0000     4          
   508  O     s     -1.3707 *    -1.9603 *    13.7224 *  0.0000     8          
   509  O     s     -1.3707 *     9.8017 *     9.8017    0.0000     4          
   510  Cl    s      8.4310 *     7.8414 *     7.8414    0.0000     4          
   511  O     s      2.5500 *    -1.9603 *    13.7224 *  0.0000     8          
   512  O     s      2.5500 *     9.8017 *     9.8017    0.0000     4          
   513  Cl    s      0.5896 *     7.8414 *    11.7620 *  0.0000     8          
   514  Cl    s    -11.1724 *     3.9207 *     7.8414 *  0.0000     8          
   515  Cl    s     -7.2517 *     3.9207 *    11.7620 *  0.0000     8          
   516  O     s     10.3913 *    -1.9603 *     9.8017 *  0.0000     8          
   517  Cl    s      8.4310 *     0.0000      11.7620 *  0.0000     4          
   518  O     s    -13.1327 *    -1.9603 *     5.8810 *  0.0000     8          
   519  Cl    s     -3.3310 *    11.7620 *     7.8414 *  0.0000     8          
   520  O     s     14.3120 *    -1.9603 *    -1.9603    0.0000     4          
   521  Cl    s     12.3517 *     0.0000       7.8414 *  0.0000     4          
   522  O     s     -9.2121 *     9.8017 *     5.8810 *  0.0000     8          
   523  O     s     -5.2914 *    13.7224 *    -1.9603 *  0.0000     8          
   524  O     s     -5.2914 *     9.8017 *     9.8017    0.0000     4          
   525  Cl    s      4.5103 *    11.7620 *     7.8414 *  0.0000     8          
   526  O     s     -1.3707 *     5.8810 *    13.7224 *  0.0000     8          
   527  Cl    s      8.4310 *     3.9207 *    11.7620 *  0.0000     8          
   528  Cl    s    -15.0931 *     0.0000       0.0000    0.0000     1          
   529  O     s      2.5500 *     5.8810 *    13.7224 *  0.0000     8          
   530  Cl    s     12.3517 *     3.9207 *     7.8414 *  0.0000     8          
   531  O     s      6.4706 *    -1.9603 *    13.7224 *  0.0000     8          
   532  O     s      6.4706 *     9.8017 *     9.8017    0.0000     4          
   533  O     s     10.3913 *     5.8810 *     9.8017 *  0.0000     8          
   534  O     s    -13.1327 *     5.8810 *     5.8810    0.0000     4          
   535  Cl    s    -15.0931 *     0.0000       3.9207 *  0.0000     4          
   536  O     s     14.3120 *    -1.9603 *     5.8810 *  0.0000     8          
   537  Cl    s      0.5896 *     0.0000      15.6827 *  0.0000     4          
   538  Cl    s    -11.1724 *     7.8414 *     7.8414    0.0000     4          
   539  O     s     -5.2914 *     5.8810 *    13.7224 *  0.0000     8          
   540  Cl    s     -7.2517 *     7.8414 *    11.7620 *  0.0000     8          
   541  Cl    s     -3.3310 *     0.0000      15.6827 *  0.0000     4          
   542  Cl    s    -15.0931 *     3.9207 *     3.9207    0.0000     4          
   543  Cl    s      0.5896 *     3.9207 *    15.6827 *  0.0000     8          
   544  Cl    s    -11.1724 *     0.0000      11.7620 *  0.0000     4          
   545  O     s      6.4706 *     5.8810 *    13.7224 *  0.0000     8          
   546  Cl    s     16.2723 *     0.0000       0.0000    0.0000     1          
   547  Cl    s      4.5103 *     0.0000      15.6827 *  0.0000     4          
   548  Cl    s      8.4310 *     7.8414 *    11.7620 *  0.0000     8          
   549  O     s    -13.1327 *    -1.9603 *     9.8017 *  0.0000     8          
   550  Cl    s     -3.3310 *     3.9207 *    15.6827 *  0.0000     8          
   551  O     s     14.3120 *     5.8810 *     5.8810    0.0000     4          
   552  Cl    s     12.3517 *     7.8414 *     7.8414    0.0000     4          
   553  O     s     -9.2121 *    13.7224 *    -1.9603 *  0.0000     8          
   554  O     s     -9.2121 *     9.8017 *     9.8017    0.0000     4          
   555  Cl    s      0.5896 *    11.7620 *    11.7620    0.0000     4          
   556  Cl    s    -11.1724 *     3.9207 *    11.7620 *  0.0000     8          
   557  Cl    s     16.2723 *     0.0000       3.9207 *  0.0000     4          
   558  Cl    s      4.5103 *     3.9207 *    15.6827 *  0.0000     8          
   559  O     s     -1.3707 *     9.8017 *    13.7224 *  0.0000     8          
   560  Cl    s     -3.3310 *    11.7620 *    11.7620    0.0000     4          
   561  Cl    s    -15.0931 *     0.0000       7.8414 *  0.0000     4          
   562  O     s      2.5500 *     9.8017 *    13.7224 *  0.0000     8          
   563  Cl    s     12.3517 *     0.0000      11.7620 *  0.0000     4          
   564  Cl    s     16.2723 *     3.9207 *     3.9207    0.0000     4          
   565  Cl    s      4.5103 *    11.7620 *    11.7620    0.0000     4          
   566  O     s    -17.0534 *    -1.9603 *    -1.9603    0.0000     4          
   567  Cl    s     -7.2517 *     0.0000      15.6827 *  0.0000     4          
   568  O     s     10.3913 *    -1.9603 *    13.7224 *  0.0000     8          
   569  O     s     10.3913 *     9.8017 *     9.8017    0.0000     4          
   570  O     s    -13.1327 *     5.8810 *     9.8017 *  0.0000     8          
   571  Cl    s    -15.0931 *     3.9207 *     7.8414 *  0.0000     8          
   572  O     s     14.3120 *    -1.9603 *     9.8017 *  0.0000     8          
   573  Cl    s     12.3517 *     3.9207 *    11.7620 *  0.0000     8          
   574  O     s     -9.2121 *    13.7224 *     5.8810 *  0.0000     8          
   575  Cl    s      0.5896 *     7.8414 *    15.6827 *  0.0000     8          
   576  O     s     -5.2914 *     9.8017 *    13.7224 *  0.0000     8          
   577  Cl    s     -7.2517 *     3.9207 *    15.6827 *  0.0000     8          
   578  O     s     -1.3707 *    -1.9603 *    17.6430 *  0.0000     8          
   579  Cl    s      8.4310 *     0.0000      15.6827 *  0.0000     4          
   580  Cl    s     -3.3310 *     7.8414 *    15.6827 *  0.0000     8          
   581  O     s      2.5500 *    17.6430 *    -1.9603 *  0.0000     8          
   582  Cl    s    -11.1724 *     7.8414 *    11.7620 *  0.0000     8          
   583  O     s      6.4706 *     9.8017 *    13.7224 *  0.0000     8          
   584  Cl    s     16.2723 *     0.0000       7.8414 *  0.0000     4          
   585  Cl    s      4.5103 *     7.8414 *    15.6827 *  0.0000     8          
   586  O     s    -17.0534 *    -1.9603 *     5.8810 *  0.0000     8          
   587  Cl    s     -7.2517 *    11.7620 *    11.7620    0.0000     4          
   588  O     s     10.3913 *     5.8810 *    13.7224 *  0.0000     8          
   589  Cl    s      8.4310 *     3.9207 *    15.6827 *  0.0000     8          
   590  O     s     14.3120 *     5.8810 *     9.8017 *  0.0000     8          
   591  O     s     18.2327 *    -1.9603 *    -1.9603    0.0000     4          
   592  Cl    s     16.2723 *     3.9207 *     7.8414 *  0.0000     8          
   593  O     s     -5.2914 *    -1.9603 *    17.6430 *  0.0000     8          
   594  O     s     -1.3707 *     5.8810 *    17.6430 *  0.0000     8          
   595  Cl    s      8.4310 *    11.7620 *    11.7620    0.0000     4          
   596  Cl    s    -15.0931 *     7.8414 *     7.8414    0.0000     4          
   597  O     s      2.5500 *     5.8810 *    17.6430 *  0.0000     8          
   598  Cl    s     12.3517 *     7.8414 *    11.7620 *  0.0000     8          
   599  O     s      6.4706 *    -1.9603 *    17.6430 *  0.0000     8          
   600  O     s    -17.0534 *     5.8810 *     5.8810    0.0000     4          
   601  Cl    s     -7.2517 *     7.8414 *    15.6827 *  0.0000     8          
   602  Cl    s    -19.0137 *     0.0000       0.0000    0.0000     1          
   603  O     s    -13.1327 *    -1.9603 *    13.7224 *  0.0000     8          
   604  O     s    -13.1327 *     9.8017 *     9.8017    0.0000     4          
   605  Cl    s    -15.0931 *     0.0000      11.7620 *  0.0000     4          
   606  O     s     -9.2121 *     9.8017 *    13.7224 *  0.0000     8          
   607  Cl    s    -11.1724 *     0.0000      15.6827 *  0.0000     4          
   608  O     s     18.2327 *     5.8810 *    -1.9603 *  0.0000     8          
   609  O     s     -5.2914 *     5.8810 *    17.6430 *  0.0000     8          
   610  Cl    s    -19.0137 *     0.0000       3.9207 *  0.0000     4          
   611  O     s     -1.3707 *    13.7224 *    13.7224    0.0000     4          
   612  Cl    s      8.4310 *     7.8414 *    15.6827 *  0.0000     8          
   613  Cl    s    -15.0931 *     3.9207 *    11.7620 *  0.0000     8          
   614  O     s      2.5500 *    13.7224 *    13.7224    0.0000     4          
   615  Cl    s      0.5896 *    11.7620 *    15.6827 *  0.0000     8          
   616  Cl    s      0.5896 *     0.0000      19.6034 *  0.0000     4          
   617  Cl    s    -11.1724 *     3.9207 *    15.6827 *  0.0000     8          
   618  O     s      6.4706 *     5.8810 *    17.6430 *  0.0000     8          
   619  Cl    s     16.2723 *     7.8414 *     7.8414    0.0000     4          
   620  O     s    -17.0534 *     9.8017 *    -1.9603 *  0.0000     8          
   621  Cl    s    -19.0137 *     3.9207 *     3.9207    0.0000     4          
   622  O     s     10.3913 *     9.8017 *    13.7224 *  0.0000     8          
   623  O     s    -13.1327 *     5.8810 *    13.7224 *  0.0000     8          
   624  Cl    s     -3.3310 *    11.7620 *    15.6827 *  0.0000     8          
   625  Cl    s     -3.3310 *     0.0000      19.6034 *  0.0000     4          
   626  O     s     14.3120 *    -1.9603 *    13.7224 *  0.0000     8          
   627  O     s     14.3120 *     9.8017 *     9.8017    0.0000     4          
   628  Cl    s     12.3517 *     0.0000      15.6827 *  0.0000     4          
   629  O     s     -9.2121 *    -1.9603 *    17.6430 *  0.0000     8          
--------------------------------------------------------------------------------


  Constraints on symmetry reduced coordinates :

--------------------------------------------------------------------------------
  Constraint no.      Unconstrained     Constrained    Coefficient    
                         Variable         Variable
--------------------------------------------------------------------------------
           1                 2 y             2 z         1.00000
           2                 3 y             3 z         1.00000
           3                 5 y             5 z         1.00000
           4                 7 y             7 z         1.00000
           5                12 y            12 z         1.00000
           6                13 y            13 z         1.00000
           7                16 y            16 z         1.00000
           8                22 y            22 z         1.00000
           9                27 y            27 z         1.00000
          10                28 y            28 z         1.00000
          11                33 y            33 z         1.00000
          12                40 y            40 z         1.00000
          13                41 y            41 z         1.00000
          14                45 y            45 z         1.00000
          15                49 y            49 z         1.00000
          16                50 y            50 z         1.00000
          17                53 y            53 z         1.00000
          18                57 y            57 z         1.00000
          19                60 y            60 z         1.00000
          20                62 y            62 z         1.00000
          21                68 y            68 z         1.00000
          22                76 y            76 z         1.00000
          23                80 y            80 z         1.00000
          24                84 y            84 z         1.00000
          25                86 y            86 z         1.00000
          26                94 y            94 z         1.00000
          27                97 y            97 z         1.00000
          28               105 y           105 z         1.00000
          29               109 y           109 z         1.00000
          30               120 y           120 z         1.00000
          31               122 y           122 z         1.00000
          32               127 y           127 z         1.00000
          33               138 y           138 z         1.00000
          34               140 y           140 z         1.00000
          35               142 y           142 z         1.00000
          36               146 y           146 z         1.00000
          37               156 y           156 z         1.00000
          38               157 y           157 z         1.00000
          39               159 y           159 z         1.00000
          40               160 y           160 z         1.00000
          41               164 y           164 z         1.00000
          42               171 y           171 z         1.00000
          43               184 y           184 z         1.00000
          44               185 y           185 z         1.00000
          45               192 y           192 z         1.00000
          46               194 y           194 z         1.00000
          47               209 y           209 z         1.00000
          48               210 y           210 z         1.00000
          49               216 y           216 z         1.00000
          50               222 y           222 z         1.00000
          51               225 y           225 z         1.00000
          52               238 y           238 z         1.00000
          53               243 y           243 z         1.00000
          54               255 y           255 z         1.00000
          55               257 y           257 z         1.00000
          56               259 y           259 z         1.00000
          57               262 y           262 z         1.00000
          58               263 y           263 z         1.00000
          59               276 y           276 z         1.00000
          60               286 y           286 z         1.00000
          61               288 y           288 z         1.00000
          62               289 y           289 z         1.00000
          63               290 y           290 z         1.00000
          64               293 y           293 z         1.00000
          65               314 y           314 z         1.00000
          66               332 y           332 z         1.00000
          67               338 y           338 z         1.00000
          68               346 y           346 z         1.00000
          69               353 y           353 z         1.00000
          70               359 y           359 z         1.00000
          71               361 y           361 z         1.00000
          72               375 y           375 z         1.00000
          73               381 y           381 z         1.00000
          74               390 y           390 z         1.00000
          75               400 y           400 z         1.00000
          76               402 y           402 z         1.00000
          77               407 y           407 z         1.00000
          78               415 y           415 z         1.00000
          79               417 y           417 z         1.00000
          80               421 y           421 z         1.00000
[...]
    549 y         -1.960338      0.000000     1.960338    Cartesian -100.00
    549 z          9.801689     -0.000000    -9.801689    Cartesian -100.00
    550 x          0.000000      0.000043     0.000043    Cartesian    0.00
    550 y          3.920675     -0.000000    -3.920676    Cartesian -100.00
    550 z         15.682702     -0.000000   -15.682702    Cartesian -100.00
    551 x         17.643040     -0.000000   -17.643040    Cartesian -100.00
    551 y          5.881013      0.000000    -5.881013    Cartesian -100.00
    551 z          5.881013      0.000000    -5.881013    Cartesian -100.00
    552 x         15.682702     -0.000000   -15.682702    Cartesian -100.00
    552 y          7.841351      0.000000    -7.841351    Cartesian -100.00
    552 z          7.841351      0.000000    -7.841351    Cartesian -100.00
    553 x         -5.881013      0.000000     5.881013    Cartesian -100.00
    553 y         13.722364     -0.000000   -13.722364    Cartesian -100.00
    553 z         -1.960338      0.000000     1.960338    Cartesian -100.00
    554 x         -5.881013      0.000000     5.881013    Cartesian -100.00
    554 y          9.801689     -0.000000    -9.801689    Cartesian -100.00
    554 z          9.801689     -0.000000    -9.801689    Cartesian -100.00
    555 x          3.920675     -0.000000    -3.920676    Cartesian -100.00
    555 y         11.762026     -0.000000   -11.762027    Cartesian -100.00
    555 z         11.762026     -0.000000   -11.762027    Cartesian -100.00
    556 x         -7.841351      0.000000     7.841351    Cartesian -100.00
    556 y          3.920675     -0.000000    -3.920676    Cartesian -100.00
    556 z         11.762026     -0.000000   -11.762027    Cartesian -100.00
    557 x         19.603377      0.000000   -19.603377    Cartesian -100.00
    557 y          0.000000      0.000000     0.000000    Cartesian    0.00
    557 z          3.920675      0.000000    -3.920675    Cartesian -100.00
    558 x          7.841351     -0.000000    -7.841351    Cartesian -100.00
    558 y          3.920675     -0.000000    -3.920675    Cartesian -100.00
    558 z         15.682702     -0.000000   -15.682702    Cartesian -100.00
    559 x          1.960338     -0.000000    -1.960338    Cartesian -100.00
    559 y          9.801689     -0.000000    -9.801689    Cartesian -100.00
    559 z         13.722364     13.720644    -0.001720    Cartesian   -0.01
    560 x          0.000000     -0.000000    -0.000000    Cartesian    0.00
    560 y         11.762026     -0.000000   -11.762027    Cartesian -100.00
    560 z         11.762026     -0.000000   -11.762027    Cartesian -100.00
    561 x        -11.762026      0.000000    11.762027    Cartesian -100.00
    561 y          0.000000      0.000000     0.000000    Cartesian    0.00
    561 z          7.841351     -0.000000    -7.841351    Cartesian -100.00
    562 x          5.881013     -0.000000    -5.881013    Cartesian -100.00
    562 y          9.801689     -0.000000    -9.801689    Cartesian -100.00
    562 z         13.722364     -0.000000   -13.722364    Cartesian -100.00
    563 x         15.682702     -0.000000   -15.682702    Cartesian -100.00
    563 y          0.000000      0.000000     0.000000    Cartesian    0.00
    563 z         11.762026      0.000000   -11.762026    Cartesian -100.00
    564 x         19.603377      0.000000   -19.603377    Cartesian -100.00
    564 y          3.920675      0.000000    -3.920675    Cartesian -100.00
    564 z          3.920675      0.000000    -3.920675    Cartesian -100.00
    565 x          7.841351     -0.000000    -7.841351    Cartesian -100.00
    565 y         11.762026     -0.000000   -11.762026    Cartesian -100.00
    565 z         11.762026     -0.000000   -11.762026    Cartesian -100.00
    566 x        -13.722364      0.000000    13.722364    Cartesian -100.00
    566 y         -1.960338      0.000000     1.960338    Cartesian -100.00
    566 z         -1.960338      0.000000     1.960338    Cartesian -100.00
    567 x         -3.920675      0.000000     3.920675    Cartesian -100.00
    567 y          0.000000      0.000000     0.000000    Cartesian    0.00
    567 z         15.682702     -0.000000   -15.682702    Cartesian -100.00
    568 x         13.722364     -0.000000   -13.722364    Cartesian -100.00
    568 y         -1.960338      0.000000     1.960338    Cartesian -100.00
    568 z         13.722364     -0.000000   -13.722364    Cartesian -100.00
    569 x         13.722364     -0.000000   -13.722364    Cartesian -100.00
    569 y          9.801689     -0.000000    -9.801689    Cartesian -100.00
    569 z          9.801689     -0.000000    -9.801689    Cartesian -100.00
    570 x         -9.801689      0.000000     9.801689    Cartesian -100.00
    570 y          5.881013      5.879604    -0.001409    Cartesian   -0.02
    570 z          9.801689     -0.000000    -9.801689    Cartesian -100.00
    571 x        -11.762026      0.000000    11.762027    Cartesian -100.00
    571 y          3.920675     -0.000000    -3.920676    Cartesian -100.00
    571 z          7.841351     -0.000000    -7.841351    Cartesian -100.00
    572 x         17.643040     -0.000000   -17.643040    Cartesian -100.00
    572 y         -1.960338     -0.000000     1.960338    Cartesian -100.00
    572 z          9.801689      0.000000    -9.801689    Cartesian -100.00
    573 x         15.682702     -0.000000   -15.682702    Cartesian -100.00
    573 y          3.920675      0.000000    -3.920675    Cartesian -100.00
    573 z         11.762026      0.000000   -11.762026    Cartesian -100.00
    574 x         -5.881013      0.000000     5.881013    Cartesian -100.00
    574 y         13.722364     -0.000000   -13.722364    Cartesian -100.00
    574 z          5.881013     -0.000000    -5.881013    Cartesian -100.00
    575 x          3.920675     -0.000000    -3.920676    Cartesian -100.00
    575 y          7.841351     -0.000000    -7.841351    Cartesian -100.00
    575 z         15.682702     -0.000000   -15.682702    Cartesian -100.00
    576 x         -1.960338     -0.000000     1.960338    Cartesian -100.00
    576 y          9.801689     -0.000000    -9.801689    Cartesian -100.00
    576 z         13.722364     -0.000000   -13.722364    Cartesian -100.00
    577 x         -3.920675      0.000000     3.920675    Cartesian -100.00
    577 y          3.920675     -0.000000    -3.920676    Cartesian -100.00
    577 z         15.682702     -0.000000   -15.682702    Cartesian -100.00
    578 x          1.960338     -0.000000    -1.960338    Cartesian -100.00
    578 y         -1.960338     -1.961098    -0.000760    Cartesian    0.04
    578 z         17.643040     -0.000000   -17.643040    Cartesian -100.00
    579 x         11.762026     -0.000000   -11.762026    Cartesian -100.00
    579 y          0.000000      0.000000     0.000000    Cartesian    0.00
    579 z         15.682702     -0.000000   -15.682702    Cartesian -100.00
    580 x          0.000000     -0.000000    -0.000000    Cartesian    0.00
    580 y          7.841351     -0.000000    -7.841351    Cartesian -100.00
    580 z         15.682702     -0.000000   -15.682702    Cartesian -100.00
    581 x          5.881013     -0.000000    -5.881013    Cartesian -100.00
    581 y         17.643040     -0.000000   -17.643040    Cartesian -100.00
    581 z         -1.960338      0.000000     1.960338    Cartesian -100.00
    582 x         -7.841351      0.000000     7.841351    Cartesian -100.00
    582 y          7.841351     -0.000000    -7.841351    Cartesian -100.00
    582 z         11.762026     -0.000000   -11.762027    Cartesian -100.00
    583 x          9.801689     -0.000000    -9.801689    Cartesian -100.00
    583 y          9.801689     -0.000000    -9.801689    Cartesian -100.00
    583 z         13.722364     -0.000000   -13.722364    Cartesian -100.00
    584 x         19.603377     -0.000000   -19.603377    Cartesian -100.00
    584 y          0.000000      0.000000     0.000000    Cartesian    0.00
    584 z          7.841351      0.000000    -7.841351    Cartesian -100.00
    585 x          7.841351     -0.000000    -7.841351    Cartesian -100.00
    585 y          7.841351     -0.000000    -7.841351    Cartesian -100.00
    585 z         15.682702     -0.000000   -15.682702    Cartesian -100.00
    586 x        -13.722364      0.000000    13.722364    Cartesian -100.00
    586 y         -1.960338      0.000000     1.960338    Cartesian -100.00
    586 z          5.881013     -0.000000    -5.881013    Cartesian -100.00
    587 x         -3.920675     -3.920034     0.000641    Cartesian   -0.02
    587 y         11.762026     -0.000000   -11.762027    Cartesian -100.00
    587 z         11.762026     -0.000000   -11.762027    Cartesian -100.00
    588 x         13.722364     -0.000000   -13.722364    Cartesian -100.00
    588 y          5.881013     -0.000000    -5.881013    Cartesian -100.00
    588 z         13.722364     -0.000000   -13.722364    Cartesian -100.00
    589 x         11.762026     -0.000000   -11.762026    Cartesian -100.00
    589 y          3.920675     -0.000000    -3.920675    Cartesian -100.00
    589 z         15.682702     -0.000000   -15.682702    Cartesian -100.00
    590 x         17.643040     -0.000000   -17.643040    Cartesian -100.00
    590 y          5.881013      0.000000    -5.881013    Cartesian -100.00
    590 z          9.801689      0.000000    -9.801689    Cartesian -100.00
    591 x         21.563715      0.000000   -21.563715    Cartesian -100.00
    591 y         -1.960338     -0.000000     1.960338    Cartesian -100.00
    591 z         -1.960338     -0.000000     1.960338    Cartesian -100.00
    592 x         19.603377     -0.000000   -19.603377    Cartesian -100.00
    592 y          3.920675      0.000000    -3.920675    Cartesian -100.00
    592 z          7.841351      0.000000    -7.841351    Cartesian -100.00
    593 x         -1.960338     -0.000000     1.960338    Cartesian -100.00
    593 y         -1.960338      0.000000     1.960338    Cartesian -100.00
    593 z         17.643040     -0.000000   -17.643040    Cartesian -100.00
    594 x          1.960338     -0.000000    -1.960338    Cartesian -100.00
    594 y          5.881013     -0.000000    -5.881013    Cartesian -100.00
    594 z         17.643040     -0.000000   -17.643040    Cartesian -100.00
    595 x         11.762026     -0.000000   -11.762026    Cartesian -100.00
    595 y         11.762026     -0.000000   -11.762026    Cartesian -100.00
    595 z         11.762026     -0.000000   -11.762026    Cartesian -100.00
    596 x        -11.762026    -11.757866     0.004160    Cartesian   -0.04
    596 y          7.841351     -0.000000    -7.841351    Cartesian -100.00
    596 z          7.841351     -0.000000    -7.841351    Cartesian -100.00
    597 x          5.881013     -0.000000    -5.881013    Cartesian -100.00
    597 y          5.881013     -0.000000    -5.881013    Cartesian -100.00
    597 z         17.643040     -0.000000   -17.643040    Cartesian -100.00
    598 x         15.682702     -0.000000   -15.682702    Cartesian -100.00
    598 y          7.841351     -0.000000    -7.841351    Cartesian -100.00
    598 z         11.762026     -0.000000   -11.762026    Cartesian -100.00
    599 x          9.801689     -0.000000    -9.801689    Cartesian -100.00
    599 y         -1.960338      0.000000     1.960338    Cartesian -100.00
    599 z         17.643040     -0.000000   -17.643040    Cartesian -100.00
    600 x        -13.722364      0.000000    13.722364    Cartesian -100.00
    600 y          5.881013     -0.000000    -5.881013    Cartesian -100.00
    600 z          5.881013     -0.000000    -5.881013    Cartesian -100.00
    601 x         -3.920675      0.000000     3.920675    Cartesian -100.00
    601 y          7.841351     -0.000000    -7.841351    Cartesian -100.00
    601 z         15.682702     -0.000000   -15.682702    Cartesian -100.00
    602 x        -15.682702      0.000000    15.682702    Cartesian -100.00
    602 y          0.000000      0.000000     0.000000    Cartesian    0.00
    602 z          0.000000      0.000000     0.000000    Cartesian    0.00
    603 x         -9.801689      0.000000     9.801689    Cartesian -100.00
    603 y         -1.960338      0.000000     1.960338    Cartesian -100.00
    603 z         13.722364     -0.000000   -13.722364    Cartesian -100.00
    604 x         -9.801689      0.000000     9.801689    Cartesian -100.00
    604 y          9.801689     -0.000000    -9.801689    Cartesian -100.00
    604 z          9.801689     -0.000000    -9.801689    Cartesian -100.00
    605 x        -11.762026      0.000000    11.762027    Cartesian -100.00
    605 y          0.000000      0.000000     0.000000    Cartesian    0.00
    605 z         11.762026     -0.000000   -11.762027    Cartesian -100.00
    606 x         -5.881013     -5.879385     0.001628    Cartesian   -0.03
    606 y          9.801689     -0.000000    -9.801689    Cartesian -100.00
    606 z         13.722364     -0.000000   -13.722364    Cartesian -100.00
    607 x         -7.841351      0.000000     7.841351    Cartesian -100.00
    607 y          0.000000      0.000000     0.000000    Cartesian    0.00
    607 z         15.682702     -0.000000   -15.682702    Cartesian -100.00
    608 x         21.563715     -0.000000   -21.563715    Cartesian -100.00
    608 y          5.881013      0.000000    -5.881013    Cartesian -100.00
    608 z         -1.960338     -0.000000     1.960338    Cartesian -100.00
    609 x         -1.960338     -0.000000     1.960338    Cartesian -100.00
    609 y          5.881013     -0.000000    -5.881013    Cartesian -100.00
    609 z         17.643040     -0.000000   -17.643040    Cartesian -100.00
    610 x        -15.682702      0.000000    15.682702    Cartesian -100.00
    610 y          0.000000      0.000000     0.000000    Cartesian    0.00
    610 z          3.920675     -0.000000    -3.920676    Cartesian -100.00
    611 x          1.960338     -0.000000    -1.960338    Cartesian -100.00
    611 y         13.722364     -0.000000   -13.722364    Cartesian -100.00
    611 z         13.722364     -0.000000   -13.722364    Cartesian -100.00
    612 x         11.762026     -0.000000   -11.762026    Cartesian -100.00
    612 y          7.841351     -0.000000    -7.841351    Cartesian -100.00
    612 z         15.682702     -0.000000   -15.682702    Cartesian -100.00
    613 x        -11.762026      0.000000    11.762027    Cartesian -100.00
    613 y          3.920675     -0.000000    -3.920676    Cartesian -100.00
    613 z         11.762026     -0.000000   -11.762027    Cartesian -100.00
    614 x          5.881013     -0.000000    -5.881013    Cartesian -100.00
    614 y         13.722364     -0.000000   -13.722364    Cartesian -100.00
    614 z         13.722364     -0.000000   -13.722364    Cartesian -100.00
    615 x          3.920675     -0.000000    -3.920676    Cartesian -100.00
    615 y         11.762026     11.759044    -0.002982    Cartesian   -0.03
    615 z         15.682702     -0.000000   -15.682702    Cartesian -100.00
    616 x          3.920675     -0.000000    -3.920676    Cartesian -100.00
    616 y          0.000000      0.000000     0.000000    Cartesian    0.00
    616 z         19.603377     -0.000000   -19.603377    Cartesian -100.00
    617 x         -7.841351      0.000000     7.841351    Cartesian -100.00
    617 y          3.920675     -0.000000    -3.920675    Cartesian -100.00
    617 z         15.682702     -0.000000   -15.682702    Cartesian -100.00
    618 x          9.801689     -0.000000    -9.801689    Cartesian -100.00
    618 y          5.881013     -0.000000    -5.881013    Cartesian -100.00
    618 z         17.643040     -0.000000   -17.643040    Cartesian -100.00
    619 x         19.603377     -0.000000   -19.603377    Cartesian -100.00
    619 y          7.841351      0.000000    -7.841351    Cartesian -100.00
    619 z          7.841351      0.000000    -7.841351    Cartesian -100.00
    620 x        -13.722364      0.000000    13.722364    Cartesian -100.00
    620 y          9.801689     -0.000000    -9.801689    Cartesian -100.00
    620 z         -1.960338      0.000000     1.960338    Cartesian -100.00
    621 x        -15.682702      0.000000    15.682702    Cartesian -100.00
    621 y          3.920675     -0.000000    -3.920676    Cartesian -100.00
    621 z          3.920675     -0.000000    -3.920676    Cartesian -100.00
    622 x         13.722364     -0.000000   -13.722364    Cartesian -100.00
    622 y          9.801689     -0.000000    -9.801689    Cartesian -100.00
    622 z         13.722364     -0.000000   -13.722364    Cartesian -100.00
    623 x         -9.801689      0.000000     9.801689    Cartesian -100.00
    623 y          5.881013     -0.000000    -5.881013    Cartesian -100.00
    623 z         13.722364     -0.000000   -13.722364    Cartesian -100.00
    624 x          0.000000     -0.000000    -0.000000    Cartesian    0.00
    624 y         11.762026     11.758110    -0.003917    Cartesian   -0.03
    624 z         15.682702     -0.000000   -15.682702    Cartesian -100.00
    625 x          0.000000     -0.000000    -0.000000    Cartesian    0.00
    625 y          0.000000      0.000000     0.000000    Cartesian    0.00
    625 z         19.603377     -0.000000   -19.603377    Cartesian -100.00
    626 x         17.643040     -0.000000   -17.643040    Cartesian -100.00
    626 y         -1.960338     -0.000000     1.960338    Cartesian -100.00
    626 z         13.722364      0.000000   -13.722364    Cartesian -100.00
    627 x         17.643040     -0.000000   -17.643040    Cartesian -100.00
    627 y          9.801689      0.000000    -9.801689    Cartesian -100.00
    627 z          9.801689      0.000000    -9.801689    Cartesian -100.00
    628 x         15.682702     -0.000000   -15.682702    Cartesian -100.00
    628 y          0.000000      0.000000     0.000000    Cartesian    0.00
    628 z         15.682702     -0.000000   -15.682702    Cartesian -100.00
    629 x         -5.881013      0.000000     5.881013    Cartesian -100.00
    629 y         -1.960338      0.000000     1.960338    Cartesian -100.00
    629 z         17.643040     -0.000000   -17.643040    Cartesian -100.00
--------------------------------------------------------------------------------


  Time to end of optimisation  =      313.1991 seconds


  Peak dynamic memory used =    1762.13 MB 


  Timing analysis for GULP :

--------------------------------------------------------------------------------
  Task / Subroutine                                          Time (Seconds)
--------------------------------------------------------------------------------
  Calculation of reciprocal space energy and derivatives          0.0003
  Calculation of reciprocal space energy using symmetry           0.0003
  Calculation of real space energy and derivatives                0.0021
  Calculation of real space energy using symmetry                 0.0035
  Calculation for region 1 energy and derivatives (2-b)         101.7944
  Calculation for region 2a energy                               62.3416
  Calculation for region 2b energy                                0.0222
  Calculation and manipulation of Hessian matrix                135.8855
  Calculation of matrix inversion                                11.8951
  Symmetry generation of equivalent positions                     0.0017
--------------------------------------------------------------------------------
  Total CPU time                                                313.1992
--------------------------------------------------------------------------------


  Dump file written as Li3OCl.grs


  Job Finished at 18:23.04 20th October    2020                               

