********************************************************************************
*                       GENERAL UTILITY LATTICE PROGRAM                        *
*                                 Julian Gale                                  *
*                       Curtin Institute for Computation                       *
*                    School of Molecular and Life Sciences                     *
*                    Curtin University, Western Australia                      *
********************************************************************************
* Version = 5.2.0 * Last modified =  10th September 2020                       *
********************************************************************************
*  optimise     - perform optimisation run                                     *
*  conp         - constant pressure calculation                                *
*  property     - calculate properties for final geometry                      *
*  defect       - perform defect calculation after bulk run                    *
*  compare      - compare initial and final structures                         *
********************************************************************************

  Job Started  at 18:23.04 20th October    2020                               

  Number of CPUs =     1


  Total number of configurations input =      1

********************************************************************************
*  Input for Configuration =   1                                               *
********************************************************************************

  Formula = ClOLi3                                                      

  Number of irreducible atoms/shells =       5


  Total number atoms/shells =       7

  Dimensionality = 3               :  Bulk   


  Symmetry :

  Crystal family                   :  Cubic       
  Crystal class  (Groth - 1921)    :  Cubic Hexakisoctahedral              

  Space group (centrosymmetric)    :  P M 3 M         

  Patterson group                  :  P m -3 m 

  Cartesian lattice vectors (Angstroms) :

        3.918873    0.000000    0.000000
        0.000000    3.918873    0.000000
        0.000000    0.000000    3.918873

  Cell parameters (Angstroms/Degrees):

  a =       3.9189    alpha =  90.0000
  b =       3.9189    beta  =  90.0000
  c =       3.9189    gamma =  90.0000

  Initial cell volume =          60.184349 Angs**3

  Temperature of configuration =   0.00     K 

  Pressure of configuration =         0.000 GPa 

  Fractional coordinates of asymmetric unit :

--------------------------------------------------------------------------------
   No.  Atomic       x           y          z         Charge      Occupancy
        Label      (Frac)      (Frac)     (Frac)        (e)         (Frac)  
--------------------------------------------------------------------------------
      1 Cl    c    0.000000    0.000000    0.000000     1.48500    1.000000    
      2 O     c    0.500000    0.500000    0.500000     0.18300    1.000000    
      3 Li    c    0.500000    0.500000    0.000000     1.00000    1.000000    
      4 Cl    s    0.000000    0.000000    0.000000    -2.48500    1.000000    
      5 O     s    0.500000    0.500000    0.500000    -2.18300    1.000000    
--------------------------------------------------------------------------------


  Constraints : 

--------------------------------------------------------------------------------
  Constraint no.      Unconstrained     Constrained    Coefficient    Offset
                         Variable         Variable
--------------------------------------------------------------------------------
           1              Strain 1        Strain 2       1.00000      0.0000
           2              Strain 1        Strain 3       1.00000      0.0000
--------------------------------------------------------------------------------


********************************************************************************
*  General input information                                                   *
********************************************************************************

  Species output for all configurations : 

--------------------------------------------------------------------------------
  Species    Type    Atomic    Atomic    Charge       Radii (Angs)     Library
                     Number     Mass       (e)     Cova   Ionic  VDW   Symbol
--------------------------------------------------------------------------------
    Li       Core        3       6.94   1.000000   0.680  0.000  1.800          
    O        Core        8      16.00   0.183000   0.730  0.000  1.360          
    O        Shell       8       0.00  -2.183000   0.730  0.000  1.360          
    Cl       Core       17      35.45   1.485000   0.990  0.000  1.650          
    Cl       Shell      17       0.00  -2.485000   0.990  0.000  1.650          
--------------------------------------------------------------------------------


  Lattice summation method               =    Ewald          (3-D)
                                         =    Parry          (2-D)
                                         =    Saunders et al (1-D)
  Accuracy factor for lattice sums       =   12.000


  Analytic derivatives to be used

  Time limit = Infinity

  Maximum range for interatomic potentials =    100000.000000 Angstroms

  General interatomic potentials :

--------------------------------------------------------------------------------
Atom  Types   Potential      Parameter       Value         Units   Cutoffs(Ang)
  1     2                                                            Min /  Max 
--------------------------------------------------------------------------------
O    c O    s Spring (c-s)  Spring k 2       593.72000    eV*Ang^-2 0.000  0.800
                            Spring k 4       0.0000000    eV*Ang^-4 
--------------------------------------------------------------------------------
Cl   c Cl   s Spring (c-s)  Spring k 2       29.380000    eV*Ang^-2 0.000  0.800
                            Spring k 4       0.0000000    eV*Ang^-4 
--------------------------------------------------------------------------------
Li   c Li   c Buckingham    Buckingham A     360.53000    eV        0.000 12.000
                            Buckingham rho  0.16100000    Ang       
                            Buckingham C     0.0000000    eV*Ang^6  
--------------------------------------------------------------------------------
Li   c O    s Buckingham    Buckingham A     292.30000    eV        0.000 12.000
                            Buckingham rho  0.34720000    Ang       
                            Buckingham C     0.0000000    eV*Ang^6  
--------------------------------------------------------------------------------
Li   c Cl   s Buckingham    Buckingham A     421.04000    eV        0.000 12.000
                            Buckingham rho  0.33400000    Ang       
                            Buckingham C     0.0000000    eV*Ang^6  
--------------------------------------------------------------------------------
O    s O    s Buckingham    Buckingham A     22764.300    eV        0.000 12.000
                            Buckingham rho  0.14900000    Ang       
                            Buckingham C     13.190000    eV*Ang^6  
--------------------------------------------------------------------------------
O    s Cl   s Buckingham    Buckingham A     8286.9100    eV        0.000 12.000
                            Buckingham rho  0.25900000    Ang       
                            Buckingham C     62.200000    eV*Ang^6  
--------------------------------------------------------------------------------
Cl   s Cl   s Buckingham    Buckingham A     1227.2000    eV        0.000 12.000
                            Buckingham rho  0.32100000    Ang       
                            Buckingham C     14.530000    eV*Ang^6  
--------------------------------------------------------------------------------

********************************************************************************
*  Output for configuration   1                                                *
********************************************************************************


  Components of energy : 

--------------------------------------------------------------------------------
  Interatomic potentials     =           7.26836263 eV    
  Monopole - monopole (real) =         -11.53475722 eV    
  Monopole - monopole (recip)=         -33.94580548 eV    
  Monopole - monopole (total)=         -45.48056271 eV    
--------------------------------------------------------------------------------
  Total lattice energy       =         -38.21220008 eV    
--------------------------------------------------------------------------------
  Total lattice energy       =           -3686.8932 kJ/(mole unit cells)
--------------------------------------------------------------------------------


  Number of variables =        1

  Maximum number of calculations  =          1000
  Maximum Hessian update interval =            10
  Maximum step size               =   1.000000000
  Maximum parameter tolerance     =   0.000010000
  Maximum function  tolerance     =   0.000010000
  Maximum gradient  tolerance     =   0.001000000
  Maximum gradient  component     =   0.010000000

  Symmetry constrained optimisation

  Symmetry used for second derivatives

  Cell parameters to be optimised using strains

  Newton-Raphson optimiser to be used

  BFGS hessian update to be used

  Lower half triangular hessian to be used

  Start of bulk optimisation :

  Cycle:      0 Energy:       -38.212200  Gnorm:      0.095699  CPU:    0.008
  ** Hessian calculated **
  Cycle:      1 Energy:       -38.212222  Gnorm:      0.000105  CPU:    0.009


  **** Optimisation achieved ****


  Final energy =     -38.21222207 eV
  Final Gnorm  =       0.00000016

  Components of energy : 

--------------------------------------------------------------------------------
  Interatomic potentials     =           7.24743141 eV    
  Monopole - monopole (real) =         -11.52945423 eV    
  Monopole - monopole (recip)=         -33.93019924 eV    
  Monopole - monopole (total)=         -45.45965348 eV    
--------------------------------------------------------------------------------
  Total lattice energy       =         -38.21222207 eV    
--------------------------------------------------------------------------------
  Total lattice energy       =           -3686.8953 kJ/(mole unit cells)
--------------------------------------------------------------------------------

  Final asymmetric unit coordinates :

--------------------------------------------------------------------------------
   No.  Atomic        x           y           z         Radius
        Label       (Frac)      (Frac)      (Frac)       (Angs) 
--------------------------------------------------------------------------------
     1  Cl    c     0.000000    0.000000    0.000000    0.000000
     2  O     c     0.500000    0.500000    0.500000    0.000000
     3  Li    c     0.500000    0.500000    0.000000    0.000000
     4  Cl    s     0.000000    0.000000    0.000000    0.000000
     5  O     s     0.500000    0.500000    0.500000    0.000000
--------------------------------------------------------------------------------

  Final Cartesian lattice vectors (Angstroms) :

        3.920675    0.000000    0.000000
        0.000000    3.920675    0.000000
        0.000000    0.000000    3.920675


  Final cell parameters and derivatives :

--------------------------------------------------------------------------------
       a            3.920675 Angstrom     dE/de1(xx)    -0.000000 eV/strain
       b            3.920675 Angstrom     dE/de2(yy)     0.000000 eV/strain
       c            3.920675 Angstrom     dE/de3(zz)     0.000000 eV/strain
       alpha       90.000000 Degrees      dE/de4(yz)     0.000000 eV/strain
       beta        90.000000 Degrees      dE/de5(xz)     0.000000 eV/strain
       gamma       90.000000 Degrees      dE/de6(xy)     0.000000 eV/strain
--------------------------------------------------------------------------------

  Primitive cell volume =            60.267433 Angs**3

  Density of cell =      1.991276 g/cm**3

  Non-primitive cell volume =            60.267433 Angs**3


  Final internal derivatives :

--------------------------------------------------------------------------------
   No.  Atomic          a             b             c           Radius
        Label          (eV)          (eV)          (eV)        (eV/Angs)
--------------------------------------------------------------------------------
      1 Cl    c       0.000000      0.000000      0.000000      0.000000
      2 O     c       0.000000      0.000000      0.000000      0.000000
      3 Li    c       0.000000      0.000000      0.000000      0.000000
      4 Cl    s       0.000000      0.000000      0.000000      0.000000
      5 O     s       0.000000      0.000000      0.000000      0.000000
--------------------------------------------------------------------------------
  Maximum abs         0.000000      0.000000      0.000000      0.000000
--------------------------------------------------------------------------------

  Comparison of initial and final structures : 

--------------------------------------------------------------------------------
  Parameter   Initial value   Final value   Difference    Units      Percent
--------------------------------------------------------------------------------
    Volume        60.184349     60.267433     0.083084    Angs**3      0.14
    a              3.918873      3.920675     0.001802    Angstroms    0.05
    b              3.918873      3.920675     0.001802    Angstroms    0.05
    c              3.918873      3.920675     0.001802    Angstroms    0.05
    alpha         90.000000     90.000000     0.000000    Degrees      0.00
    beta          90.000000     90.000000     0.000000    Degrees      0.00
    gamma         90.000000     90.000000     0.000000    Degrees      0.00
      1 x          0.000000      0.000000     0.000000    Fractional   0.00
      1 y          0.000000      0.000000     0.000000    Fractional   0.00
      1 z          0.000000      0.000000     0.000000    Fractional   0.00
      2 x          0.500000      0.500000     0.000000    Fractional   0.00
      2 y          0.500000      0.500000     0.000000    Fractional   0.00
      2 z          0.500000      0.500000     0.000000    Fractional   0.00
      3 x          0.500000      0.500000     0.000000    Fractional   0.00
      3 y          0.500000      0.500000     0.000000    Fractional   0.00
      3 z          0.000000      0.000000     0.000000    Fractional   0.00
      4 x          0.000000      0.000000     0.000000    Fractional   0.00
      4 y          0.000000      0.000000     0.000000    Fractional   0.00
      4 z          0.000000      0.000000     0.000000    Fractional   0.00
      5 x          0.500000      0.500000     0.000000    Fractional   0.00
      5 y          0.500000      0.500000     0.000000    Fractional   0.00
      5 z          0.500000      0.500000     0.000000    Fractional   0.00
--------------------------------------------------------------------------------


  Born effective charge tensors : 

-------------------------------------------------------------------------------
  Atom             x           y             z
-------------------------------------------------------------------------------
    1 Cl    x      -0.9489     -0.0000     -0.0000
            y      -0.0000     -0.9489     -0.0000
            z      -0.0000     -0.0000     -0.9489
-------------------------------------------------------------------------------
    2 O     x      -2.4688      0.0000      0.0000
            y       0.0000     -2.4688      0.0000
            z       0.0000      0.0000     -2.4688
-------------------------------------------------------------------------------
    3 Li    x       1.3129      0.0000     -0.0000
            y       0.0000      1.3129      0.0000
            z      -0.0000      0.0000      0.7919
-------------------------------------------------------------------------------




  Elastic Constant Matrix: (Units=GPa)

-------------------------------------------------------------------------------
  Indices      1         2         3         4         5         6    
-------------------------------------------------------------------------------
       1     94.3368   44.9178   44.9178    0.0000   -0.0000    0.0000
       2     44.9178   94.3368   44.9178   -0.0000    0.0000   -0.0000
       3     44.9178   44.9178   94.3368    0.0000   -0.0000    0.0000
       4      0.0000   -0.0000    0.0000   44.9178   -0.0000    0.0000
       5     -0.0000    0.0000   -0.0000   -0.0000   44.9178    0.0000
       6      0.0000   -0.0000    0.0000    0.0000    0.0000   44.9178
-------------------------------------------------------------------------------


  Elastic Compliance Matrix: (Units=1/GPa)

-------------------------------------------------------------------------------
  Indices      1         2         3         4         5         6    
-------------------------------------------------------------------------------
       1    0.015300 -0.004935 -0.004935 -0.000000  0.000000 -0.000000
       2   -0.004935  0.015300 -0.004935  0.000000 -0.000000  0.000000
       3   -0.004935 -0.004935  0.015300 -0.000000  0.000000 -0.000000
       4   -0.000000  0.000000 -0.000000  0.022263  0.000000 -0.000000
       5    0.000000 -0.000000  0.000000  0.000000  0.022263 -0.000000
       6   -0.000000  0.000000 -0.000000 -0.000000 -0.000000  0.022263
-------------------------------------------------------------------------------

  Mechanical properties :

-------------------------------------------------------------------------------
  Convention :                    Reuss         Voigt         Hill
-------------------------------------------------------------------------------
  Bulk  Modulus (GPa)     =      61.39080      61.39080      61.39080
  Shear Modulus (GPa)     =      33.84570      36.83448      35.34009
-------------------------------------------------------------------------------
  Velocity S-wave (km/s)  =       4.12274       4.30092       4.21277
  Velocity P-wave (km/s)  =       7.31386       7.44942       7.38195
-------------------------------------------------------------------------------
  Compressibility (1/GPa) =    0.01628909
-------------------------------------------------------------------------------
  Stress axis :                     x             y             z
-------------------------------------------------------------------------------
  Youngs Moduli (GPa)     =      65.35947      65.35947      65.35947
-------------------------------------------------------------------------------
  Poissons Ratio (x)      =                     0.32256       0.32256
  Poissons Ratio (y)      =       0.32256                     0.32256
  Poissons Ratio (z)      =       0.32256       0.32256
-------------------------------------------------------------------------------


  Piezoelectric Strain Matrix: (Units=C/m**2)

-------------------------------------------------------------------------------
  Indices      1         2         3         4         5         6    
-------------------------------------------------------------------------------
       x    -0.00000   0.00000   0.00000  -0.00000  -0.00000   0.00000
       y    -0.00000   0.00000   0.00000  -0.00000  -0.00000  -0.00000
       z     0.00000   0.00000   0.00000   0.00000  -0.00000  -0.00000
-------------------------------------------------------------------------------


  Piezoelectric Stress Matrix: (Units=10**-11 C/N)

-------------------------------------------------------------------------------
  Indices      1         2         3         4         5         6    
-------------------------------------------------------------------------------
       x    -0.00000   0.00000   0.00000  -0.00000  -0.00000   0.00000
       y    -0.00000   0.00000   0.00000  -0.00000  -0.00000  -0.00000
       z    -0.00000  -0.00000   0.00000   0.00000  -0.00000  -0.00000
-------------------------------------------------------------------------------


  Static dielectric constant tensor : 

-------------------------------------------------------------------------------
              x         y         z
-------------------------------------------------------------------------------
       x    12.11703   0.00000  -0.00000
       y     0.00000  12.11703  -0.00000
       z    -0.00000  -0.00000  12.11703
--------------------------------------------------------------------------------

  High frequency dielectric constant tensor : 

-------------------------------------------------------------------------------
              x         y         z
-------------------------------------------------------------------------------
       x     1.74104   0.00000   0.00000
       y     0.00000   1.74104   0.00000
       z     0.00000   0.00000   1.74104
-------------------------------------------------------------------------------

  Static refractive indices : 

-------------------------------------------------------------------------------
    1 =    3.48095      2 =    3.48095      3 =    3.48095
-------------------------------------------------------------------------------

  High frequency refractive indices : 

-------------------------------------------------------------------------------
    1 =    1.31948      2 =    1.31948      3 =    1.31948
-------------------------------------------------------------------------------


  Time to end of optimisation =       0.0128 seconds

********************************************************************************
*  Defect calculation for configuration   1 :                                  *
********************************************************************************

  Total number of defects =      3

  Total charge on defect  =   1.00

  Defect centre is at   3.5270   0.0000   0.0000  Angs

  Region 1 radius =  20.0000      Number of ions =   3896

  Number of symmetry inequivalent region 1 ions  =    631

  Region 2 radius =  24.0000      Number of ions =   2860

  Number of symmetry inequivalent region 2a ions =    416

  Region 2a mode = 4 : screened electrostatics due to region 1 
                       neglect correction to region 1 forces from 2a
                       region 2a displacements based on defects only

  Region 2a ions will only interact with defects in region 1

  Vacancies:

--------------------------------------------------------------------------------
    Specification type     Symbol/Number         x          y          z
--------------------------------------------------------------------------------
    Cartesian                                0.000000   0.000000   0.000000
    Cartesian                                3.918873   0.000000   0.000000
--------------------------------------------------------------------------------

  Interstitials:

--------------------------------------------------------------------------------
    Specification type     Symbol/Number         x          y          z
--------------------------------------------------------------------------------
    Atom/Fractional         Cl               3.526986   0.000000   0.000000
--------------------------------------------------------------------------------


  Symmetry reduced region 1 (Relative to defect centre) :

--------------------------------------------------------------------------------
   No.   Atomic       x            y             z       Radius  Multiplicity   
         Label      (Angs)       (Angs)        (Angs)    (Angs)     
--------------------------------------------------------------------------------
     1  Li    c     -1.5666 *    -1.9603 *     0.0000    0.0000     4          
     2  Li    c      0.3937 *     1.9603 *     1.9603    0.0000     4          
     3  Li    c      2.3540 *    -1.9603 *     0.0000    0.0000     4          
     4  O     c     -1.5666 *    -1.9603 *    -1.9603    0.0000     4          
     5  O     c      2.3540 *    -1.9603 *    -1.9603    0.0000     4          
     6  Cl    c      0.3937 *     0.0000       3.9207 *  0.0000     4          
     7  Cl    c      4.3144 *     0.0000       0.0000    0.0000     1          
     8  Li    c     -3.5270 *     1.9603 *     1.9603    0.0000     4          
     9  Li    c     -1.5666 *    -1.9603 *     3.9207 *  0.0000     8          
    10  Li    c      2.3540 *    -1.9603 *     3.9207 *  0.0000     8          
    11  Li    c      4.3144 *     1.9603 *     1.9603    0.0000     4          
    12  Cl    c     -3.5270 *     0.0000       3.9207 *  0.0000     4          
    13  Cl    c      0.3937 *     3.9207 *     3.9207    0.0000     4          
    14  Li    c     -5.4873 *    -1.9603 *     0.0000    0.0000     4          
    15  Cl    c      4.3144 *     0.0000       3.9207 *  0.0000     4          
    16  Li    c     -1.5666 *     5.8810 *     0.0000    0.0000     4          
    17  O     c     -5.4873 *    -1.9603 *    -1.9603    0.0000     4          
    18  Li    c      0.3937 *     1.9603 *     5.8810 *  0.0000     8          
    19  Li    c      2.3540 *     5.8810 *     0.0000    0.0000     4          
    20  Cl    c      6.3805       0.0000       0.0000    0.0000     1    Defect
    21  O     c     -1.5666 *    -1.9603 *     5.8810 *  0.0000     8          
    22  Cl    c     -3.5270 *     3.9207 *     3.9207    0.0000     4          
    23  Li    c      6.2747 *    -1.9603 *     0.0000    0.0000     4          
    24  O     c      2.3540 *    -1.9603 *     5.8810 *  0.0000     8          
    25  O     c      6.2747 *    -1.9603 *    -1.9603    0.0000     4          
    26  Li    c     -5.4873 *    -1.9603 *     3.9207 *  0.0000     8          
    27  Cl    c      4.3144 *     3.9207 *     3.9207    0.0000     4          
    28  Li    c     -3.5270 *     1.9603 *     5.8810 *  0.0000     8          
    29  Li    c     -1.5666 *     5.8810 *     3.9207 *  0.0000     8          
    30  Cl    c     -7.4477 *     0.0000       0.0000    0.0000     1          
    31  Li    c      2.3540 *     5.8810 *     3.9207 *  0.0000     8          
    32  Li    c      4.3144 *     5.8810 *     1.9603 *  0.0000     8          
    33  Li    c      6.2747 *    -1.9603 *     3.9207 *  0.0000     8          
    34  Cl    c      0.3937 *     0.0000       7.8414 *  0.0000     4          
    35  Li    c     -7.4477 *     1.9603 *     1.9603    0.0000     4          
    36  Li    c     -5.4873 *     5.8810 *     0.0000    0.0000     4          
    37  Li    c     -1.5666 *    -1.9603 *     7.8414 *  0.0000     8          
    38  Cl    c      8.2350 *     0.0000       0.0000    0.0000     1          
    39  O     c     -5.4873 *    -1.9603 *     5.8810 *  0.0000     8          
    40  Li    c      0.3937 *     5.8810 *     5.8810    0.0000     4          
    41  Cl    c     -7.4477 *     0.0000       3.9207 *  0.0000     4          
    42  Li    c      2.3540 *    -1.9603 *     7.8414 *  0.0000     8          
    43  O     c     -1.5666 *     5.8810 *     5.8810    0.0000     4          
    44  Cl    c     -3.5270 *     0.0000       7.8414 *  0.0000     4          
    45  Li    c      6.2747 *     5.8810 *     0.0000    0.0000     4          
    46  O     c      2.3540 *     5.8810 *     5.8810    0.0000     4          
    47  Li    c      8.2350 *     1.9603 *     1.9603    0.0000     4          
    48  Cl    c      0.3937 *     3.9207 *     7.8414 *  0.0000     8          
    49  O     c      6.2747 *    -1.9603 *     5.8810 *  0.0000     8          
    50  Li    c     -5.4873 *     3.9207 *     5.8810 *  0.0000     8          
    51  Cl    c      4.3144 *     0.0000       7.8414 *  0.0000     4          
    52  Li    c     -3.5270 *     5.8810 *     5.8810    0.0000     4          
    53  Cl    c      8.2350 *     0.0000       3.9207 *  0.0000     4          
    54  Cl    c     -7.4477 *     3.9207 *     3.9207    0.0000     4          
    55  Li    c      4.3144 *     5.8810 *     5.8810    0.0000     4          
    56  Cl    c     -3.5270 *     3.9207 *     7.8414 *  0.0000     8          
    57  Li    c      6.2747 *     5.8810 *     3.9207 *  0.0000     8          
    58  Li    c     -9.4080 *    -1.9603 *     0.0000    0.0000     4          
    59  Li    c     -7.4477 *     1.9603 *     5.8810 *  0.0000     8          
    60  Li    c     -5.4873 *    -1.9603 *     7.8414 *  0.0000     8          
    61  Cl    c      4.3144 *     3.9207 *     7.8414 *  0.0000     8          
    62  O     c     -9.4080 *    -1.9603 *    -1.9603    0.0000     4          
    63  Li    c     -1.5666 *     5.8810 *     7.8414 *  0.0000     8          
    64  Li    c     -1.5666 *     9.8017 *     0.0000    0.0000     4          
    65  Cl    c      8.2350 *     3.9207 *     3.9207    0.0000     4          
    66  O     c     -5.4873 *     5.8810 *     5.8810    0.0000     4          
    67  Li    c      0.3937 *     1.9603 *     9.8017 *  0.0000     8          
    68  Li    c      2.3540 *     5.8810 *     7.8414 *  0.0000     8          
    69  Li    c      2.3540 *     9.8017 *     0.0000    0.0000     4          
    70  O     c     -1.5666 *    -1.9603 *     9.8017 *  0.0000     8          
    71  Li    c      6.2747 *    -1.9603 *     7.8414 *  0.0000     8          
    72  O     c      2.3540 *    -1.9603 *     9.8017 *  0.0000     8          
    73  Li    c      8.2350 *     1.9603 *     5.8810 *  0.0000     8          
    74  Li    c     -9.4080 *    -1.9603 *     3.9207 *  0.0000     8          
    75  Li    c     10.1954 *    -1.9603 *     0.0000    0.0000     4          
    76  O     c      6.2747 *     5.8810 *     5.8810    0.0000     4          
    77  O     c     10.1954 *    -1.9603 *    -1.9603    0.0000     4          
    78  Li    c     -3.5270 *     1.9603 *     9.8017 *  0.0000     8          
    79  Li    c     -1.5666 *     3.9207 *     9.8017 *  0.0000     8          
    80  Cl    c     -7.4477 *     0.0000       7.8414 *  0.0000     4          
    81  Li    c      2.3540 *     3.9207 *     9.8017 *  0.0000     8          
    82  Li    c      4.3144 *     1.9603 *     9.8017 *  0.0000     8          
    83  Li    c     -9.4080 *     5.8810 *     0.0000    0.0000     4          
    84  Cl    c      0.3937 *     7.8414 *     7.8414    0.0000     4          
    85  Li    c     10.1954 *    -1.9603 *     3.9207 *  0.0000     8          
    86  Li    c     -7.4477 *     5.8810 *     5.8810    0.0000     4          
    87  Li    c     -5.4873 *     5.8810 *     7.8414 *  0.0000     8          
    88  Li    c     -5.4873 *     9.8017 *     0.0000    0.0000     4          
    89  O     c     -9.4080 *    -1.9603 *     5.8810 *  0.0000     8          
    90  Cl    c    -11.3683 *     0.0000       0.0000    0.0000     1          
    91  Cl    c      8.2350 *     0.0000       7.8414 *  0.0000     4          
    92  O     c     -5.4873 *    -1.9603 *     9.8017 *  0.0000     8          
    93  Li    c      0.3937 *     5.8810 *     9.8017 *  0.0000     8          
    94  Cl    c     -7.4477 *     3.9207 *     7.8414 *  0.0000     8          
    95  O     c     -1.5666 *     5.8810 *     9.8017 *  0.0000     8          
    96  Cl    c     -3.5270 *     7.8414 *     7.8414    0.0000     4          
    97  Li    c      6.2747 *     5.8810 *     7.8414 *  0.0000     8          
    98  Li    c      6.2747 *     9.8017 *     0.0000    0.0000     4          
    99  O     c      2.3540 *     5.8810 *     9.8017 *  0.0000     8          
   100  Li    c    -11.3683 *     1.9603 *     1.9603    0.0000     4          
   101  Li    c      8.2350 *     5.8810 *     5.8810    0.0000     4          
   102  Li    c     -9.4080 *     5.8810 *     3.9207 *  0.0000     8          
   103  Cl    c      0.3937 *     0.0000      11.7620 *  0.0000     4          
   104  Li    c     10.1954 *     5.8810 *     0.0000    0.0000     4          
   105  O     c      6.2747 *    -1.9603 *     9.8017 *  0.0000     8          
   106  Li    c     -5.4873 *     9.8017 *     3.9207 *  0.0000     8          
   107  Cl    c      4.3144 *     7.8414 *     7.8414    0.0000     4          
   108  O     c     10.1954 *     5.8810 *    -1.9603 *  0.0000     8          
   109  Li    c     -3.5270 *     5.8810 *     9.8017 *  0.0000     8          
   110  Cl    c    -11.3683 *     0.0000       3.9207 *  0.0000     4          
   111  Li    c     -1.5666 *    11.7620 *    -1.9603 *  0.0000     8          
   112  Cl    c      8.2350 *     7.8414 *     3.9207 *  0.0000     8          
   113  Li    c      2.3540 *    11.7620 *    -1.9603 *  0.0000     8          
   114  Cl    c     12.1557 *     0.0000       0.0000    0.0000     1          
   115  Li    c      4.3144 *     5.8810 *     9.8017 *  0.0000     8          
   116  Cl    c     -3.5270 *     0.0000      11.7620 *  0.0000     4          
   117  Li    c      6.2747 *     9.8017 *     3.9207 *  0.0000     8          
   118  Li    c     -9.4080 *     7.8414 *    -1.9603 *  0.0000     8          
   119  Cl    c      0.3937 *     3.9207 *    11.7620 *  0.0000     8          
   120  Li    c     10.1954 *     5.8810 *     3.9207 *  0.0000     8          
   121  Li    c     -7.4477 *     1.9603 *     9.8017 *  0.0000     8          
   122  Li    c     12.1557 *     1.9603 *     1.9603    0.0000     4          
   123  Cl    c      4.3144 *     0.0000      11.7620 *  0.0000     4          
   124  O     c     -9.4080 *     5.8810 *     5.8810    0.0000     4          
   125  Cl    c    -11.3683 *     3.9207 *     3.9207    0.0000     4          
   126  Li    c     -1.5666 *     7.8414 *     9.8017 *  0.0000     8          
   127  O     c     -5.4873 *     5.8810 *     9.8017 *  0.0000     8          
   128  Li    c      2.3540 *     9.8017 *     7.8414 *  0.0000     8          
   129  Cl    c     12.1557 *     0.0000       3.9207 *  0.0000     4          
   130  Cl    c     -3.5270 *     3.9207 *    11.7620 *  0.0000     8          
   131  Li    c    -11.3683 *     1.9603 *     5.8810 *  0.0000     8          
   132  Li    c      8.2350 *     9.8017 *     1.9603 *  0.0000     8          
   133  Li    c     10.1954 *    -1.9603 *     7.8414 *  0.0000     8          
   134  O     c      6.2747 *     5.8810 *     9.8017 *  0.0000     8          
   135  Li    c     -5.4873 *    -1.9603 *    11.7620 *  0.0000     8          
   136  Cl    c      4.3144 *     3.9207 *    11.7620 *  0.0000     8          
   137  O     c     10.1954 *     5.8810 *     5.8810    0.0000     4          
   138  Li    c     -1.5666 *     5.8810 *    11.7620 *  0.0000     8          
   139  Cl    c     -7.4477 *     7.8414 *     7.8414    0.0000     4          
   140  Li    c      2.3540 *     5.8810 *    11.7620 *  0.0000     8          
   141  Cl    c     12.1557 *     3.9207 *     3.9207    0.0000     4          
   142  Li    c    -13.3287 *    -1.9603 *     0.0000    0.0000     4          
   143  Li    c      6.2747 *    11.7620 *    -1.9603 *  0.0000     8          
   144  Li    c     -9.4080 *     5.8810 *     7.8414 *  0.0000     8          
   145  Li    c     -9.4080 *     9.8017 *     0.0000    0.0000     4          
   146  O     c    -13.3287 *    -1.9603 *    -1.9603    0.0000     4          
   147  Li    c     -7.4477 *     5.8810 *     9.8017 *  0.0000     8          
   148  Li    c     12.1557 *     1.9603 *     5.8810 *  0.0000     8          
   149  Li    c     -5.4873 *     9.8017 *     7.8414 *  0.0000     8          
   150  O     c     -9.4080 *     9.8017 *    -1.9603 *  0.0000     8          
   151  Cl    c    -11.3683 *     0.0000       7.8414 *  0.0000     4          
   152  Li    c     -1.5666 *    13.7224 *     0.0000    0.0000     4          
   153  Cl    c      8.2350 *     7.8414 *     7.8414    0.0000     4          
   154  Li    c      0.3937 *     1.9603 *    13.7224 *  0.0000     8          
   155  Li    c      0.3937 *     9.8017 *     9.8017    0.0000     4          
   156  Cl    c     -7.4477 *     0.0000      11.7620 *  0.0000     4          
   157  Li    c      2.3540 *    13.7224 *     0.0000    0.0000     4          
   158  O     c     -1.5666 *    13.7224 *    -1.9603 *  0.0000     8          
   159  O     c     -1.5666 *     9.8017 *     9.8017    0.0000     4          
   160  Li    c    -13.3287 *    -1.9603 *     3.9207 *  0.0000     8          
   161  Li    c      6.2747 *     9.8017 *     7.8414 *  0.0000     8          
   162  O     c      2.3540 *    13.7224 *    -1.9603 *  0.0000     8          
   163  O     c      2.3540 *     9.8017 *     9.8017    0.0000     4          
   164  Li    c    -11.3683 *     5.8810 *     5.8810    0.0000     4          
   165  Li    c      8.2350 *     5.8810 *     9.8017 *  0.0000     8          
   166  Li    c     -9.4080 *     9.8017 *     3.9207 *  0.0000     8          
   167  Cl    c      0.3937 *     7.8414 *    11.7620 *  0.0000     8          
   168  Li    c     10.1954 *     5.8810 *     7.8414 *  0.0000     8          
   169  Li    c     10.1954 *     9.8017 *     0.0000    0.0000     4          
   170  Li    c     -5.4873 *     5.8810 *    11.7620 *  0.0000     8          
   171  Li    c     14.1161 *    -1.9603 *     0.0000    0.0000     4          
   172  O     c     10.1954 *     9.8017 *    -1.9603 *  0.0000     8          
   173  Li    c     -3.5270 *     1.9603 *    13.7224 *  0.0000     8          
   174  Li    c     -3.5270 *     9.8017 *     9.8017    0.0000     4          
   175  Cl    c    -11.3683 *     3.9207 *     7.8414 *  0.0000     8          
   176  Li    c     -1.5666 *    13.7224 *     3.9207 *  0.0000     8          
   177  Cl    c      8.2350 *     0.0000      11.7620 *  0.0000     4          
   178  O     c     14.1161 *    -1.9603 *    -1.9603    0.0000     4          
   179  Cl    c     -7.4477 *     3.9207 *    11.7620 *  0.0000     8          
   180  Li    c      2.3540 *    13.7224 *     3.9207 *  0.0000     8          
   181  Cl    c     12.1557 *     0.0000       7.8414 *  0.0000     4          
   182  Li    c      4.3144 *     1.9603 *    13.7224 *  0.0000     8          
   183  Li    c      4.3144 *     9.8017 *     9.8017    0.0000     4          
   184  Li    c    -13.3287 *     5.8810 *     0.0000    0.0000     4          
   185  Cl    c     -3.5270 *     7.8414 *    11.7620 *  0.0000     8          
   186  Li    c      6.2747 *     5.8810 *    11.7620 *  0.0000     8          
   187  Li    c     10.1954 *     9.8017 *     3.9207 *  0.0000     8          
   188  O     c    -13.3287 *    -1.9603 *     5.8810 *  0.0000     8          
   189  Li    c     12.1557 *     5.8810 *     5.8810    0.0000     4          
   190  Li    c     -5.4873 *    13.7224 *     0.0000    0.0000     4          
   191  Cl    c      4.3144 *     7.8414 *    11.7620 *  0.0000     8          
   192  Li    c     14.1161 *    -1.9603 *     3.9207 *  0.0000     8          
   193  O     c     -9.4080 *     5.8810 *     9.8017 *  0.0000     8          
   194  Cl    c      8.2350 *    11.7620 *     3.9207 *  0.0000     8          
   195  O     c     -5.4873 *    -1.9603 *    13.7224 *  0.0000     8          
   196  O     c     -5.4873 *     9.8017 *     9.8017    0.0000     4          
   197  Li    c      0.3937 *     5.8810 *    13.7224 *  0.0000     8          
   198  Cl    c     12.1557 *     3.9207 *     7.8414 *  0.0000     8          
   199  O     c     -1.5666 *     5.8810 *    13.7224 *  0.0000     8          
   200  Li    c    -13.3287 *     5.8810 *     3.9207 *  0.0000     8          
   201  Li    c      6.2747 *    13.7224 *     0.0000    0.0000     4          
   202  O     c      2.3540 *     5.8810 *    13.7224 *  0.0000     8          
   203  Li    c    -11.3683 *     1.9603 *     9.8017 *  0.0000     8          
   204  Li    c     -9.4080 *    -1.9603 *    11.7620 *  0.0000     8          
   205  O     c      6.2747 *    -1.9603 *    13.7224 *  0.0000     8          
   206  O     c      6.2747 *     9.8017 *     9.8017    0.0000     4          
   207  Cl    c    -15.2890 *     0.0000       0.0000    0.0000     1          
   208  Li    c     -5.4873 *    13.7224 *     3.9207 *  0.0000     8          
   209  Li    c     14.1161 *     5.8810 *     0.0000    0.0000     4          
   210  O     c     10.1954 *     5.8810 *     9.8017 *  0.0000     8          
   211  Li    c     -3.5270 *     5.8810 *    13.7224 *  0.0000     8          
   212  Li    c     -1.5666 *    11.7620 *     9.8017 *  0.0000     8          
   213  O     c     14.1161 *    -1.9603 *     5.8810 *  0.0000     8          
   214  Li    c      2.3540 *     9.8017 *    11.7620 *  0.0000     8          
   215  Li    c    -15.2890 *     1.9603 *     1.9603    0.0000     4          
   216  Li    c      4.3144 *     5.8810 *    13.7224 *  0.0000     8          
   217  Li    c    -13.3287 *    -1.9603 *     7.8414 *  0.0000     8          
   218  Li    c      6.2747 *    13.7224 *     3.9207 *  0.0000     8          
   219  Li    c     -9.4080 *     9.8017 *     7.8414 *  0.0000     8          
   220  Cl    c      0.3937 *     0.0000      15.6827 *  0.0000     4          
   221  Li    c     10.1954 *    -1.9603 *    11.7620 *  0.0000     8          
   222  O     c    -13.3287 *     5.8810 *     5.8810    0.0000     4          
   223  Li    c     -7.4477 *     1.9603 *    13.7224 *  0.0000     8          
   224  Li    c     -7.4477 *     9.8017 *     9.8017    0.0000     4          
   225  Li    c     12.1557 *     1.9603 *     9.8017 *  0.0000     8          
   226  Cl    c    -15.2890 *     0.0000       3.9207 *  0.0000     4          
   227  Li    c     14.1161 *     5.8810 *     3.9207 *  0.0000     8          
   228  Cl    c    -11.3683 *     7.8414 *     7.8414    0.0000     4          
   229  Li    c     -1.5666 *    15.6827 *    -1.9603 *  0.0000     8          
   230  Li    c     -1.5666 *    13.7224 *     7.8414 *  0.0000     8          
   231  O     c     -5.4873 *     5.8810 *    13.7224 *  0.0000     8          
   232  Cl    c     -7.4477 *     7.8414 *    11.7620 *  0.0000     8          
   233  Li    c      2.3540 *    15.6827 *    -1.9603 *  0.0000     8          
   234  Li    c      2.3540 *    13.7224 *     7.8414 *  0.0000     8          
   235  Cl    c     -3.5270 *     0.0000      15.6827 *  0.0000     4          
   236  Cl    c     16.0764 *     0.0000       0.0000    0.0000     1          
   237  Li    c    -11.3683 *     5.8810 *     9.8017 *  0.0000     8          
   238  Li    c      8.2350 *    13.7224 *     1.9603 *  0.0000     8          
   239  Li    c      8.2350 *     9.8017 *     9.8017    0.0000     4          
   240  Li    c     -9.4080 *     5.8810 *    11.7620 *  0.0000     8          
   241  Cl    c      0.3937 *     3.9207 *    15.6827 *  0.0000     8          
   242  Li    c     10.1954 *     9.8017 *     7.8414 *  0.0000     8          
   243  O     c      6.2747 *     5.8810 *    13.7224 *  0.0000     8          
   244  Cl    c    -15.2890 *     3.9207 *     3.9207    0.0000     4          
   245  Li    c     -5.4873 *     9.8017 *    11.7620 *  0.0000     8          
   246  Cl    c      4.3144 *     0.0000      15.6827 *  0.0000     4          
   247  Li    c     14.1161 *    -1.9603 *     7.8414 *  0.0000     8          
   248  Li    c     16.0764 *     1.9603 *     1.9603    0.0000     4          
   249  Cl    c    -11.3683 *     0.0000      11.7620 *  0.0000     4          
   250  Cl    c      8.2350 *     7.8414 *    11.7620 *  0.0000     8          
   251  O     c     14.1161 *     5.8810 *     5.8810    0.0000     4          
   252  Cl    c     12.1557 *     7.8414 *     7.8414    0.0000     4          
   253  Li    c    -15.2890 *     1.9603 *     5.8810 *  0.0000     8          
   254  Li    c    -13.3287 *     5.8810 *     7.8414 *  0.0000     8          
   255  Li    c    -13.3287 *     9.8017 *     0.0000    0.0000     4          
   256  Cl    c     -3.5270 *     3.9207 *    15.6827 *  0.0000     8          
   257  Li    c      6.2747 *     9.8017 *    11.7620 *  0.0000     8          
   258  Cl    c     16.0764 *     0.0000       3.9207 *  0.0000     4          
   259  Li    c     -9.4080 *    13.7224 *     0.0000    0.0000     4          
   260  Cl    c      0.3937 *    11.7620 *    11.7620    0.0000     4          
   261  Li    c     10.1954 *     5.8810 *    11.7620 *  0.0000     8          
   262  O     c    -13.3287 *     9.8017 *    -1.9603 *  0.0000     8          
   263  Li    c     -7.4477 *     5.8810 *    13.7224 *  0.0000     8          
   264  Li    c     12.1557 *     5.8810 *     9.8017 *  0.0000     8          
   265  Li    c     -5.4873 *    15.6827 *    -1.9603 *  0.0000     8          
   266  Li    c     -5.4873 *    13.7224 *     7.8414 *  0.0000     8          
   267  Cl    c      4.3144 *     3.9207 *    15.6827 *  0.0000     8          
   268  O     c     -9.4080 *    -1.9603 *    13.7224 *  0.0000     8          
   269  O     c     -9.4080 *     9.8017 *     9.8017    0.0000     4          
   270  Cl    c    -11.3683 *     3.9207 *    11.7620 *  0.0000     8          
   271  Li    c     -1.5666 *     5.8810 *    15.6827 *  0.0000     8          
   272  Li    c      0.3937 *     9.8017 *    13.7224 *  0.0000     8          
   273  Li    c      2.3540 *    15.6827 *     5.8810 *  0.0000     8          
   274  Cl    c     12.1557 *     0.0000      11.7620 *  0.0000     4          
   275  O     c     -1.5666 *     9.8017 *    13.7224 *  0.0000     8          
   276  Li    c    -13.3287 *     9.8017 *     3.9207 *  0.0000     8          
   277  Cl    c     -3.5270 *    11.7620 *    11.7620    0.0000     4          
   278  Li    c      6.2747 *    -1.9603 *    15.6827 *  0.0000     8          
   279  Li    c      6.2747 *    13.7224 *     7.8414 *  0.0000     8          
   280  Cl    c     16.0764 *     3.9207 *     3.9207    0.0000     4          
   281  O     c      2.3540 *    13.7224 *     9.8017 *  0.0000     8          
   282  Li    c      8.2350 *    13.7224 *     5.8810 *  0.0000     8          
   283  Li    c     -9.4080 *     3.9207 *    13.7224 *  0.0000     8          
   284  Li    c     10.1954 *    13.7224 *     0.0000    0.0000     4          
   285  Cl    c    -15.2890 *     0.0000       7.8414 *  0.0000     4          
   286  Cl    c      4.3144 *    11.7620 *    11.7620    0.0000     4          
   287  Li    c     14.1161 *     5.8810 *     7.8414 *  0.0000     8          
   288  Li    c     14.1161 *     9.8017 *     0.0000    0.0000     4          
   289  O     c     10.1954 *    13.7224 *    -1.9603 *  0.0000     8          
   290  O     c     10.1954 *     9.8017 *     9.8017    0.0000     4          
   291  Li    c     -3.5270 *     9.8017 *    13.7224 *  0.0000     8          
   292  Li    c     16.0764 *     1.9603 *     5.8810 *  0.0000     8          
   293  O     c     14.1161 *    -1.9603 *     9.8017 *  0.0000     8          
   294  Li    c    -17.2493 *    -1.9603 *     0.0000    0.0000     4          
   295  Cl    c     -7.4477 *     0.0000      15.6827 *  0.0000     4          
   296  Cl    c     12.1557 *     3.9207 *    11.7620 *  0.0000     8          
   297  Li    c    -15.2890 *     5.8810 *     5.8810    0.0000     4          
   298  Li    c      4.3144 *     9.8017 *    13.7224 *  0.0000     8          
   299  O     c    -17.2493 *    -1.9603 *    -1.9603    0.0000     4          
   300  Cl    c      0.3937 *     7.8414 *    15.6827 *  0.0000     8          
   301  Li    c     10.1954 *    13.7224 *     3.9207 *  0.0000     8          
   302  O     c    -13.3287 *     9.8017 *     5.8810 *  0.0000     8          
   303  Cl    c    -15.2890 *     3.9207 *     7.8414 *  0.0000     8          
   304  Li    c     -5.4873 *    15.6827 *     5.8810 *  0.0000     8          
   305  Li    c     14.1161 *     3.9207 *     9.8017 *  0.0000     8          
   306  O     c     -9.4080 *     5.8810 *    13.7224 *  0.0000     8          
   307  Li    c     -1.5666 *    17.6430 *     0.0000    0.0000     4          
   308  Cl    c      8.2350 *     0.0000      15.6827 *  0.0000     4          
   309  O     c     -5.4873 *     9.8017 *    13.7224 *  0.0000     8          
   310  Li    c      0.3937 *     1.9603 *    17.6430 *  0.0000     8          
   311  Li    c    -17.2493 *    -1.9603 *     3.9207 *  0.0000     8          
   312  Cl    c     -7.4477 *     3.9207 *    15.6827 *  0.0000     8          
   313  Li    c      2.3540 *    17.6430 *     0.0000    0.0000     4          
   314  O     c     -1.5666 *    -1.9603 *    17.6430 *  0.0000     8          
   315  Li    c    -13.3287 *    -1.9603 *    11.7620 *  0.0000     8          
   316  Cl    c     -3.5270 *     7.8414 *    15.6827 *  0.0000     8          
   317  Li    c      6.2747 *     5.8810 *    15.6827 *  0.0000     8          
   318  Cl    c     16.0764 *     0.0000       7.8414 *  0.0000     4          
   319  O     c      2.3540 *    -1.9603 *    17.6430 *  0.0000     8          
   320  Li    c    -11.3683 *     1.9603 *    13.7224 *  0.0000     8          
   321  Li    c    -11.3683 *     9.8017 *     9.8017    0.0000     4          
   322  Li    c     -9.4080 *     9.8017 *    11.7620 *  0.0000     8          
   323  O     c      6.2747 *     9.8017 *    13.7224 *  0.0000     8          
   324  Cl    c      4.3144 *     7.8414 *    15.6827 *  0.0000     8          
   325  O     c     10.1954 *     5.8810 *    13.7224 *  0.0000     8          
   326  Li    c     -3.5270 *    17.6430 *     1.9603 *  0.0000     8          
   327  Li    c     16.0764 *     5.8810 *     5.8810    0.0000     4          
   328  Cl    c    -11.3683 *     7.8414 *    11.7620 *  0.0000     8          
   329  Li    c     -1.5666 *    13.7224 *    11.7620 *  0.0000     8          
   330  Li    c     -1.5666 *    17.6430 *     3.9207 *  0.0000     8          
   331  Cl    c      8.2350 *     3.9207 *    15.6827 *  0.0000     8          
   332  Li    c     18.0367 *    -1.9603 *     0.0000    0.0000     4          
   333  O     c     14.1161 *     5.8810 *     9.8017 *  0.0000     8          
   334  Li    c    -17.2493 *     5.8810 *     0.0000    0.0000     4          
   335  Cl    c     -7.4477 *    11.7620 *    11.7620    0.0000     4          
   336  Li    c      2.3540 *    13.7224 *    11.7620 *  0.0000     8          
   337  Li    c      2.3540 *     3.9207 *    17.6430 *  0.0000     8          
   338  O     c     18.0367 *    -1.9603 *    -1.9603    0.0000     4          
   339  Li    c    -15.2890 *     1.9603 *     9.8017 *  0.0000     8          
   340  Li    c      4.3144 *     1.9603 *    17.6430 *  0.0000     8          
   341  Li    c    -13.3287 *     9.8017 *     7.8414 *  0.0000     8          
   342  Cl    c     16.0764 *     3.9207 *     7.8414 *  0.0000     8          
   343  O     c    -17.2493 *     5.8810 *    -1.9603 *  0.0000     8          
   344  Li    c     -9.4080 *    15.6827 *    -1.9603 *  0.0000     8          
   345  Li    c     -9.4080 *     7.8414 *    13.7224 *  0.0000     8          
   346  Li    c     10.1954 *     9.8017 *    11.7620 *  0.0000     8          
   347  Li    c     -7.4477 *     9.8017 *    13.7224 *  0.0000     8          
   348  Li    c     12.1557 *     1.9603 *    13.7224 *  0.0000     8          
   349  Li    c     12.1557 *     9.8017 *     9.8017    0.0000     4          
   350  Li    c     -5.4873 *    17.6430 *     0.0000    0.0000     4          
   351  Li    c     14.1161 *    -1.9603 *    11.7620 *  0.0000     8          
   352  Li    c     -1.5666 *     9.8017 *    15.6827 *  0.0000     8          
   353  Cl    c      8.2350 *    11.7620 *    11.7620    0.0000     4          
   354  Li    c     18.0367 *    -1.9603 *     3.9207 *  0.0000     8          
   355  O     c     -5.4873 *    -1.9603 *    17.6430 *  0.0000     8          
   356  Li    c      0.3937 *    17.6430 *     5.8810 *  0.0000     8          
   357  Li    c    -17.2493 *     5.8810 *     3.9207 *  0.0000     8          
   358  Li    c      2.3540 *     9.8017 *    15.6827 *  0.0000     8          
   359  Cl    c     12.1557 *     7.8414 *    11.7620 *  0.0000     8          
   360  O     c     -1.5666 *    17.6430 *     5.8810 *  0.0000     8          
   361  Li    c    -13.3287 *     5.8810 *    11.7620 *  0.0000     8          
   362  Li    c      6.2747 *    17.6430 *     0.0000    0.0000     4          
   363  O     c      2.3540 *     5.8810 *    17.6430 *  0.0000     8          
   364  Li    c    -11.3683 *     5.8810 *    13.7224 *  0.0000     8          
   365  Li    c      8.2350 *     9.8017 *    13.7224 *  0.0000     8          
   366  Li    c     10.1954 *    -1.9603 *    15.6827 *  0.0000     8          
   367  Li    c     10.1954 *    13.7224 *     7.8414 *  0.0000     8          
   368  O     c      6.2747 *    -1.9603 *    17.6430 *  0.0000     8          
   369  Cl    c    -15.2890 *     7.8414 *     7.8414    0.0000     4          
   370  Li    c     -5.4873 *    13.7224 *    11.7620 *  0.0000     8          
   371  Li    c     -5.4873 *    17.6430 *     3.9207 *  0.0000     8          
   372  Li    c     14.1161 *     7.8414 *     9.8017 *  0.0000     8          
   373  Li    c     -3.5270 *    17.6430 *     5.8810 *  0.0000     8          
   374  Li    c     16.0764 *     9.8017 *     1.9603 *  0.0000     8          
   375  Li    c     18.0367 *     5.8810 *     0.0000    0.0000     4          
   376  Li    c    -17.2493 *    -1.9603 *     7.8414 *  0.0000     8          
   377  Cl    c     -7.4477 *     7.8414 *    15.6827 *  0.0000     8          
   378  O     c     18.0367 *     5.8810 *    -1.9603 *  0.0000     8          
   379  Li    c    -15.2890 *     5.8810 *     9.8017 *  0.0000     8          
   380  Li    c      4.3144 *     5.8810 *    17.6430 *  0.0000     8          
   381  Li    c    -13.3287 *    13.7224 *     0.0000    0.0000     4          
   382  Li    c      6.2747 *    13.7224 *    11.7620 *  0.0000     8          
   383  Li    c      6.2747 *     3.9207 *    17.6430 *  0.0000     8          
   384  O     c    -17.2493 *     5.8810 *     5.8810    0.0000     4          
   385  Cl    c    -19.2097 *     0.0000       0.0000    0.0000     1          
   386  Li    c     -9.4080 *    15.6827 *     5.8810 *  0.0000     8          
   387  O     c    -13.3287 *    13.7224 *    -1.9603 *  0.0000     8          
   388  O     c    -13.3287 *     9.8017 *     9.8017    0.0000     4          
   389  Li    c     -7.4477 *     1.9603 *    17.6430 *  0.0000     8          
   390  Li    c     12.1557 *     5.8810 *    13.7224 *  0.0000     8          
   391  Cl    c    -15.2890 *     0.0000      11.7620 *  0.0000     4          
   392  Li    c     -5.4873 *     9.8017 *    15.6827 *  0.0000     8          
   393  Li    c     14.1161 *     5.8810 *    11.7620 *  0.0000     8          
   394  O     c     -9.4080 *     9.8017 *    13.7224 *  0.0000     8          
   395  Cl    c    -11.3683 *     0.0000      15.6827 *  0.0000     4          
   396  Li    c     -1.5666 *    17.6430 *     7.8414 *  0.0000     8          
   397  Cl    c      8.2350 *     7.8414 *    15.6827 *  0.0000     8          
   398  Li    c     18.0367 *     5.8810 *     3.9207 *  0.0000     8          
   399  O     c     -5.4873 *     5.8810 *    17.6430 *  0.0000     8          
   400  Li    c    -19.2097 *     1.9603 *     1.9603    0.0000     4          
   401  Li    c      0.3937 *    13.7224 *    13.7224    0.0000     4          
   402  Li    c      2.3540 *     7.8414 *    17.6430 *  0.0000     8          
   403  O     c     -1.5666 *    13.7224 *    13.7224    0.0000     4          
   404  Li    c    -13.3287 *    13.7224 *     3.9207 *  0.0000     8          
   405  Li    c      6.2747 *     9.8017 *    15.6827 *  0.0000     8          
   406  Cl    c     16.0764 *     7.8414 *     7.8414    0.0000     4          
   407  O     c      2.3540 *    13.7224 *    13.7224    0.0000     4          
   408  Li    c      8.2350 *     1.9603 *    17.6430 *  0.0000     8          
   409  Cl    c    -19.2097 *     0.0000       3.9207 *  0.0000     4          
   410  Cl    c      0.3937 *    11.7620 *    15.6827 *  0.0000     8          
   411  Cl    c      0.3937 *     0.0000      19.6034 *  0.0000     4          
   412  Li    c     10.1954 *     5.8810 *    15.6827 *  0.0000     8          
   413  O     c      6.2747 *     5.8810 *    17.6430 *  0.0000     8          
   414  Cl    c    -15.2890 *     3.9207 *    11.7620 *  0.0000     8          
   415  Li    c     14.1161 *    13.7224 *     0.0000    0.0000     4          
   416  O     c     10.1954 *     9.8017 *    13.7224 *  0.0000     8          
   417  Li    c     -3.5270 *    13.7224 *    13.7224    0.0000     4          
   418  Li    c     16.0764 *     9.8017 *     5.8810 *  0.0000     8          
   419  Cl    c    -11.3683 *     3.9207 *    15.6827 *  0.0000     8          
   420  Li    c     -1.5666 *    -1.9603 *    19.6034 *  0.0000     8          
   421  Li    c     18.0367 *    -1.9603 *     7.8414 *  0.0000     8          
   422  O     c     14.1161 *    -1.9603 *    13.7224 *  0.0000     8          
   423  O     c     14.1161 *     9.8017 *     9.8017    0.0000     4          
   424  Li    c    -17.2493 *     5.8810 *     7.8414 *  0.0000     8          
   425  Li    c    -17.2493 *     9.8017 *     0.0000    0.0000     4          
   426  Li    c      2.3540 *    -1.9603 *    19.6034 *  0.0000     8          
   427  Cl    c     12.1557 *     0.0000      15.6827 *  0.0000     4          
   428  O     c     18.0367 *     5.8810 *     5.8810    0.0000     4          
   429  Li    c      4.3144 *    13.7224 *    13.7224    0.0000     4          
   430  Cl    c     -3.5270 *    11.7620 *    15.6827 *  0.0000     8          
   431  Cl    c     -3.5270 *     0.0000      19.6034 *  0.0000     4          
   432  Cl    c     16.0764 *     0.0000      11.7620 *  0.0000     4          
   433  O     c    -17.2493 *    -1.9603 *     9.8017 *  0.0000     8          
   434  Cl    c    -19.2097 *     3.9207 *     3.9207    0.0000     4          
   435  Li    c     -9.4080 *    17.6430 *     0.0000    0.0000     4          
   436  Cl    c      0.3937 *     3.9207 *    19.6034 *  0.0000     8          
   437  Cl    c     19.9971 *     0.0000       0.0000    0.0000     1          
   438  O     s     -1.5666 *    -1.9603 *    -1.9603    0.0000     4          
   439  O     s      2.3540 *    -1.9603 *    -1.9603    0.0000     4          
   440  Cl    s      0.3937 *     0.0000       3.9207 *  0.0000     4          
   441  Cl    s      4.3144 *     0.0000       0.0000    0.0000     1          
   442  Cl    s     -3.5270 *     0.0000       3.9207 *  0.0000     4          
   443  Cl    s      0.3937 *     3.9207 *     3.9207    0.0000     4          
   444  Cl    s      4.3144 *     0.0000       3.9207 *  0.0000     4          
   445  O     s     -5.4873 *    -1.9603 *    -1.9603    0.0000     4          
   446  Cl    s      6.3805       0.0000       0.0000    0.0000     1    Defect
   447  O     s     -1.5666 *    -1.9603 *     5.8810 *  0.0000     8          
   448  Cl    s     -3.5270 *     3.9207 *     3.9207    0.0000     4          
   449  O     s      2.3540 *    -1.9603 *     5.8810 *  0.0000     8          
   450  O     s      6.2747 *    -1.9603 *    -1.9603    0.0000     4          
   451  Cl    s      4.3144 *     3.9207 *     3.9207    0.0000     4          
   452  Cl    s     -7.4477 *     0.0000       0.0000    0.0000     1          
   453  Cl    s      0.3937 *     0.0000       7.8414 *  0.0000     4          
   454  Cl    s      8.2350 *     0.0000       0.0000    0.0000     1          
   455  O     s     -5.4873 *    -1.9603 *     5.8810 *  0.0000     8          
   456  Cl    s     -7.4477 *     0.0000       3.9207 *  0.0000     4          
   457  O     s     -1.5666 *     5.8810 *     5.8810    0.0000     4          
   458  Cl    s     -3.5270 *     0.0000       7.8414 *  0.0000     4          
   459  O     s      2.3540 *     5.8810 *     5.8810    0.0000     4          
   460  Cl    s      0.3937 *     3.9207 *     7.8414 *  0.0000     8          
   461  O     s      6.2747 *    -1.9603 *     5.8810 *  0.0000     8          
   462  Cl    s      4.3144 *     0.0000       7.8414 *  0.0000     4          
   463  Cl    s      8.2350 *     0.0000       3.9207 *  0.0000     4          
   464  Cl    s     -7.4477 *     3.9207 *     3.9207    0.0000     4          
   465  Cl    s     -3.5270 *     3.9207 *     7.8414 *  0.0000     8          
   466  Cl    s      4.3144 *     3.9207 *     7.8414 *  0.0000     8          
   467  O     s     -9.4080 *    -1.9603 *    -1.9603    0.0000     4          
   468  Cl    s      8.2350 *     3.9207 *     3.9207    0.0000     4          
   469  O     s     -5.4873 *     5.8810 *     5.8810    0.0000     4          
   470  O     s     -1.5666 *    -1.9603 *     9.8017 *  0.0000     8          
   471  O     s      2.3540 *    -1.9603 *     9.8017 *  0.0000     8          
   472  O     s      6.2747 *     5.8810 *     5.8810    0.0000     4          
   473  O     s     10.1954 *    -1.9603 *    -1.9603    0.0000     4          
   474  Cl    s     -7.4477 *     0.0000       7.8414 *  0.0000     4          
   475  Cl    s      0.3937 *     7.8414 *     7.8414    0.0000     4          
   476  O     s     -9.4080 *    -1.9603 *     5.8810 *  0.0000     8          
   477  Cl    s    -11.3683 *     0.0000       0.0000    0.0000     1          
   478  Cl    s      8.2350 *     0.0000       7.8414 *  0.0000     4          
   479  O     s     -5.4873 *    -1.9603 *     9.8017 *  0.0000     8          
   480  Cl    s     -7.4477 *     3.9207 *     7.8414 *  0.0000     8          
   481  O     s     -1.5666 *     5.8810 *     9.8017 *  0.0000     8          
   482  Cl    s     -3.5270 *     7.8414 *     7.8414    0.0000     4          
   483  O     s      2.3540 *     5.8810 *     9.8017 *  0.0000     8          
   484  Cl    s      0.3937 *     0.0000      11.7620 *  0.0000     4          
   485  O     s      6.2747 *    -1.9603 *     9.8017 *  0.0000     8          
   486  Cl    s      4.3144 *     7.8414 *     7.8414    0.0000     4          
   487  O     s     10.1954 *     5.8810 *    -1.9603 *  0.0000     8          
   488  Cl    s    -11.3683 *     0.0000       3.9207 *  0.0000     4          
   489  Cl    s      8.2350 *     7.8414 *     3.9207 *  0.0000     8          
   490  Cl    s     12.1557 *     0.0000       0.0000    0.0000     1          
   491  Cl    s     -3.5270 *     0.0000      11.7620 *  0.0000     4          
   492  Cl    s      0.3937 *     3.9207 *    11.7620 *  0.0000     8          
   493  Cl    s      4.3144 *     0.0000      11.7620 *  0.0000     4          
   494  O     s     -9.4080 *     5.8810 *     5.8810    0.0000     4          
   495  Cl    s    -11.3683 *     3.9207 *     3.9207    0.0000     4          
   496  O     s     -5.4873 *     5.8810 *     9.8017 *  0.0000     8          
   497  Cl    s     12.1557 *     0.0000       3.9207 *  0.0000     4          
   498  Cl    s     -3.5270 *     3.9207 *    11.7620 *  0.0000     8          
   499  O     s      6.2747 *     5.8810 *     9.8017 *  0.0000     8          
   500  Cl    s      4.3144 *     3.9207 *    11.7620 *  0.0000     8          
   501  O     s     10.1954 *     5.8810 *     5.8810    0.0000     4          
   502  Cl    s     -7.4477 *     7.8414 *     7.8414    0.0000     4          
   503  Cl    s     12.1557 *     3.9207 *     3.9207    0.0000     4          
   504  O     s    -13.3287 *    -1.9603 *    -1.9603    0.0000     4          
   505  O     s     -9.4080 *     9.8017 *    -1.9603 *  0.0000     8          
   506  Cl    s    -11.3683 *     0.0000       7.8414 *  0.0000     4          
   507  Cl    s      8.2350 *     7.8414 *     7.8414    0.0000     4          
   508  Cl    s     -7.4477 *     0.0000      11.7620 *  0.0000     4          
   509  O     s     -1.5666 *    13.7224 *    -1.9603 *  0.0000     8          
   510  O     s     -1.5666 *     9.8017 *     9.8017    0.0000     4          
   511  O     s      2.3540 *    13.7224 *    -1.9603 *  0.0000     8          
   512  O     s      2.3540 *     9.8017 *     9.8017    0.0000     4          
   513  Cl    s      0.3937 *     7.8414 *    11.7620 *  0.0000     8          
   514  O     s     10.1954 *     9.8017 *    -1.9603 *  0.0000     8          
   515  Cl    s    -11.3683 *     3.9207 *     7.8414 *  0.0000     8          
   516  Cl    s      8.2350 *     0.0000      11.7620 *  0.0000     4          
   517  O     s     14.1161 *    -1.9603 *    -1.9603    0.0000     4          
   518  Cl    s     -7.4477 *     3.9207 *    11.7620 *  0.0000     8          
   519  Cl    s     12.1557 *     0.0000       7.8414 *  0.0000     4          
   520  Cl    s     -3.5270 *     7.8414 *    11.7620 *  0.0000     8          
   521  O     s    -13.3287 *    -1.9603 *     5.8810 *  0.0000     8          
   522  Cl    s      4.3144 *     7.8414 *    11.7620 *  0.0000     8          
   523  O     s     -9.4080 *     5.8810 *     9.8017 *  0.0000     8          
   524  Cl    s      8.2350 *    11.7620 *     3.9207 *  0.0000     8          
   525  O     s     -5.4873 *    -1.9603 *    13.7224 *  0.0000     8          
   526  O     s     -5.4873 *     9.8017 *     9.8017    0.0000     4          
   527  Cl    s     12.1557 *     3.9207 *     7.8414 *  0.0000     8          
   528  O     s     -1.5666 *     5.8810 *    13.7224 *  0.0000     8          
   529  O     s      2.3540 *     5.8810 *    13.7224 *  0.0000     8          
   530  O     s      6.2747 *    -1.9603 *    13.7224 *  0.0000     8          
   531  O     s      6.2747 *     9.8017 *     9.8017    0.0000     4          
   532  Cl    s    -15.2890 *     0.0000       0.0000    0.0000     1          
   533  O     s     10.1954 *     5.8810 *     9.8017 *  0.0000     8          
   534  O     s     14.1161 *    -1.9603 *     5.8810 *  0.0000     8          
   535  Cl    s      0.3937 *     0.0000      15.6827 *  0.0000     4          
   536  O     s    -13.3287 *     5.8810 *     5.8810    0.0000     4          
   537  Cl    s    -15.2890 *     0.0000       3.9207 *  0.0000     4          
   538  Cl    s    -11.3683 *     7.8414 *     7.8414    0.0000     4          
   539  O     s     -5.4873 *     5.8810 *    13.7224 *  0.0000     8          
   540  Cl    s     -7.4477 *     7.8414 *    11.7620 *  0.0000     8          
   541  Cl    s     -3.5270 *     0.0000      15.6827 *  0.0000     4          
   542  Cl    s     16.0764 *     0.0000       0.0000    0.0000     1          
   543  Cl    s      0.3937 *     3.9207 *    15.6827 *  0.0000     8          
   544  O     s      6.2747 *     5.8810 *    13.7224 *  0.0000     8          
   545  Cl    s    -15.2890 *     3.9207 *     3.9207    0.0000     4          
   546  Cl    s      4.3144 *     0.0000      15.6827 *  0.0000     4          
   547  Cl    s    -11.3683 *     0.0000      11.7620 *  0.0000     4          
   548  Cl    s      8.2350 *     7.8414 *    11.7620 *  0.0000     8          
   549  O     s     14.1161 *     5.8810 *     5.8810    0.0000     4          
   550  Cl    s     12.1557 *     7.8414 *     7.8414    0.0000     4          
   551  Cl    s     -3.5270 *     3.9207 *    15.6827 *  0.0000     8          
   552  Cl    s     16.0764 *     0.0000       3.9207 *  0.0000     4          
   553  Cl    s      0.3937 *    11.7620 *    11.7620    0.0000     4          
   554  O     s    -13.3287 *     9.8017 *    -1.9603 *  0.0000     8          
   555  Cl    s      4.3144 *     3.9207 *    15.6827 *  0.0000     8          
   556  O     s     -9.4080 *    -1.9603 *    13.7224 *  0.0000     8          
   557  O     s     -9.4080 *     9.8017 *     9.8017    0.0000     4          
   558  Cl    s    -11.3683 *     3.9207 *    11.7620 *  0.0000     8          
   559  Cl    s     12.1557 *     0.0000      11.7620 *  0.0000     4          
   560  O     s     -1.5666 *     9.8017 *    13.7224 *  0.0000     8          
   561  Cl    s     -3.5270 *    11.7620 *    11.7620    0.0000     4          
   562  Cl    s     16.0764 *     3.9207 *     3.9207    0.0000     4          
   563  O     s      2.3540 *    13.7224 *     9.8017 *  0.0000     8          
   564  Cl    s    -15.2890 *     0.0000       7.8414 *  0.0000     4          
   565  Cl    s      4.3144 *    11.7620 *    11.7620    0.0000     4          
   566  O     s     10.1954 *    13.7224 *    -1.9603 *  0.0000     8          
   567  O     s     10.1954 *     9.8017 *     9.8017    0.0000     4          
   568  O     s     14.1161 *    -1.9603 *     9.8017 *  0.0000     8          
   569  Cl    s     -7.4477 *     0.0000      15.6827 *  0.0000     4          
   570  Cl    s     12.1557 *     3.9207 *    11.7620 *  0.0000     8          
   571  O     s    -17.2493 *    -1.9603 *    -1.9603    0.0000     4          
   572  Cl    s      0.3937 *     7.8414 *    15.6827 *  0.0000     8          
   573  O     s    -13.3287 *     9.8017 *     5.8810 *  0.0000     8          
   574  Cl    s    -15.2890 *     3.9207 *     7.8414 *  0.0000     8          
   575  O     s     -9.4080 *     5.8810 *    13.7224 *  0.0000     8          
   576  Cl    s      8.2350 *     0.0000      15.6827 *  0.0000     4          
   577  O     s     -5.4873 *     9.8017 *    13.7224 *  0.0000     8          
   578  Cl    s     -7.4477 *     3.9207 *    15.6827 *  0.0000     8          
   579  O     s     -1.5666 *    -1.9603 *    17.6430 *  0.0000     8          
   580  Cl    s     -3.5270 *     7.8414 *    15.6827 *  0.0000     8          
   581  Cl    s     16.0764 *     0.0000       7.8414 *  0.0000     4          
   582  O     s      2.3540 *    -1.9603 *    17.6430 *  0.0000     8          
   583  O     s      6.2747 *     9.8017 *    13.7224 *  0.0000     8          
   584  Cl    s      4.3144 *     7.8414 *    15.6827 *  0.0000     8          
   585  O     s     10.1954 *     5.8810 *    13.7224 *  0.0000     8          
   586  Cl    s    -11.3683 *     7.8414 *    11.7620 *  0.0000     8          
   587  Cl    s      8.2350 *     3.9207 *    15.6827 *  0.0000     8          
   588  O     s     14.1161 *     5.8810 *     9.8017 *  0.0000     8          
   589  Cl    s     -7.4477 *    11.7620 *    11.7620    0.0000     4          
   590  O     s     18.0367 *    -1.9603 *    -1.9603    0.0000     4          
   591  Cl    s     16.0764 *     3.9207 *     7.8414 *  0.0000     8          
   592  O     s    -17.2493 *     5.8810 *    -1.9603 *  0.0000     8          
   593  Cl    s      8.2350 *    11.7620 *    11.7620    0.0000     4          
   594  O     s     -5.4873 *    -1.9603 *    17.6430 *  0.0000     8          
   595  Cl    s     12.1557 *     7.8414 *    11.7620 *  0.0000     8          
   596  O     s     -1.5666 *    17.6430 *     5.8810 *  0.0000     8          
   597  O     s      2.3540 *     5.8810 *    17.6430 *  0.0000     8          
   598  O     s      6.2747 *    -1.9603 *    17.6430 *  0.0000     8          
   599  Cl    s    -15.2890 *     7.8414 *     7.8414    0.0000     4          
   600  Cl    s     -7.4477 *     7.8414 *    15.6827 *  0.0000     8          
   601  O     s     18.0367 *     5.8810 *    -1.9603 *  0.0000     8          
   602  O     s    -17.2493 *     5.8810 *     5.8810    0.0000     4          
   603  Cl    s    -19.2097 *     0.0000       0.0000    0.0000     1          
   604  O     s    -13.3287 *    13.7224 *    -1.9603 *  0.0000     8          
   605  O     s    -13.3287 *     9.8017 *     9.8017    0.0000     4          
   606  Cl    s    -15.2890 *     0.0000      11.7620 *  0.0000     4          
   607  O     s     -9.4080 *     9.8017 *    13.7224 *  0.0000     8          
   608  Cl    s    -11.3683 *     0.0000      15.6827 *  0.0000     4          
   609  Cl    s      8.2350 *     7.8414 *    15.6827 *  0.0000     8          
   610  O     s     -5.4873 *     5.8810 *    17.6430 *  0.0000     8          
   611  O     s     -1.5666 *    13.7224 *    13.7224    0.0000     4          
   612  Cl    s     16.0764 *     7.8414 *     7.8414    0.0000     4          
   613  O     s      2.3540 *    13.7224 *    13.7224    0.0000     4          
   614  Cl    s    -19.2097 *     0.0000       3.9207 *  0.0000     4          
   615  Cl    s      0.3937 *    11.7620 *    15.6827 *  0.0000     8          
   616  Cl    s      0.3937 *     0.0000      19.6034 *  0.0000     4          
   617  O     s      6.2747 *     5.8810 *    17.6430 *  0.0000     8          
   618  Cl    s    -15.2890 *     3.9207 *    11.7620 *  0.0000     8          
   619  O     s     10.1954 *     9.8017 *    13.7224 *  0.0000     8          
   620  Cl    s    -11.3683 *     3.9207 *    15.6827 *  0.0000     8          
   621  O     s     14.1161 *    -1.9603 *    13.7224 *  0.0000     8          
   622  O     s     14.1161 *     9.8017 *     9.8017    0.0000     4          
   623  Cl    s     12.1557 *     0.0000      15.6827 *  0.0000     4          
   624  O     s     18.0367 *     5.8810 *     5.8810    0.0000     4          
   625  Cl    s     -3.5270 *    11.7620 *    15.6827 *  0.0000     8          
   626  Cl    s     -3.5270 *     0.0000      19.6034 *  0.0000     4          
   627  Cl    s     16.0764 *     0.0000      11.7620 *  0.0000     4          
   628  O     s    -17.2493 *    -1.9603 *     9.8017 *  0.0000     8          
   629  Cl    s    -19.2097 *     3.9207 *     3.9207    0.0000     4          
   630  Cl    s      0.3937 *     3.9207 *    19.6034 *  0.0000     8          
   631  Cl    s     19.9971 *     0.0000       0.0000    0.0000     1          
--------------------------------------------------------------------------------


  Constraints on symmetry reduced coordinates :

--------------------------------------------------------------------------------
  Constraint no.      Unconstrained     Constrained    Coefficient    
                         Variable         Variable
--------------------------------------------------------------------------------
           1                 2 y             2 z         1.00000
           2                 4 y             4 z         1.00000
           3                 5 y             5 z         1.00000
           4                 8 y             8 z         1.00000
           5                11 y            11 z         1.00000
           6                13 y            13 z         1.00000
           7                17 y            17 z         1.00000
           8                22 y            22 z         1.00000
           9                25 y            25 z         1.00000
          10                27 y            27 z         1.00000
          11                35 y            35 z         1.00000
          12                40 y            40 z         1.00000
          13                43 y            43 z         1.00000
          14                46 y            46 z         1.00000
          15                47 y            47 z         1.00000
          16                52 y            52 z         1.00000
          17                54 y            54 z         1.00000
          18                55 y            55 z         1.00000
          19                62 y            62 z         1.00000
          20                65 y            65 z         1.00000
          21                66 y            66 z         1.00000
          22                76 y            76 z         1.00000
          23                77 y            77 z         1.00000
          24                84 y            84 z         1.00000
          25                86 y            86 z         1.00000
          26                96 y            96 z         1.00000
          27               100 y           100 z         1.00000
          28               101 y           101 z         1.00000
          29               107 y           107 z         1.00000
          30               122 y           122 z         1.00000
          31               124 y           124 z         1.00000
          32               125 y           125 z         1.00000
          33               137 y           137 z         1.00000
          34               139 y           139 z         1.00000
          35               141 y           141 z         1.00000
          36               146 y           146 z         1.00000
          37               153 y           153 z         1.00000
          38               155 y           155 z         1.00000
          39               159 y           159 z         1.00000
          40               163 y           163 z         1.00000
          41               164 y           164 z         1.00000
          42               174 y           174 z         1.00000
          43               178 y           178 z         1.00000
          44               183 y           183 z         1.00000
          45               189 y           189 z         1.00000
          46               196 y           196 z         1.00000
          47               206 y           206 z         1.00000
          48               215 y           215 z         1.00000
          49               222 y           222 z         1.00000
          50               224 y           224 z         1.00000
          51               228 y           228 z         1.00000
          52               239 y           239 z         1.00000
          53               244 y           244 z         1.00000
          54               248 y           248 z         1.00000
          55               251 y           251 z         1.00000
          56               252 y           252 z         1.00000
          57               260 y           260 z         1.00000
          58               269 y           269 z         1.00000
          59               277 y           277 z         1.00000
          60               280 y           280 z         1.00000
          61               286 y           286 z         1.00000
          62               290 y           290 z         1.00000
          63               297 y           297 z         1.00000
          64               299 y           299 z         1.00000
          65               321 y           321 z         1.00000
          66               327 y           327 z         1.00000
          67               335 y           335 z         1.00000
          68               338 y           338 z         1.00000
          69               349 y           349 z         1.00000
          70               353 y           353 z         1.00000
          71               369 y           369 z         1.00000
          72               384 y           384 z         1.00000
          73               388 y           388 z         1.00000
          74               400 y           400 z         1.00000
          75               401 y           401 z         1.00000
          76               403 y           403 z         1.00000
          77               406 y           406 z         1.00000
[...]
    551 y          3.920675      3.919631    -0.001044    Cartesian   -0.03
    551 z         15.682702     15.679091    -0.003611    Cartesian   -0.02
    552 x         19.603377     19.607203     0.003825    Cartesian    0.02
    552 y          0.000000      0.000000     0.000000    Cartesian    0.00
    552 z          3.920675      3.930575     0.009900    Cartesian    0.25
    553 x          3.920675      3.914040    -0.006635    Cartesian   -0.17
    553 y         11.762026     11.761185    -0.000841    Cartesian   -0.01
    553 z         11.762026     11.761185    -0.000841    Cartesian   -0.01
    554 x         -9.801689     -9.798936     0.002753    Cartesian   -0.03
    554 y          9.801689      9.798692    -0.002997    Cartesian   -0.03
    554 z         -1.960338     -1.959802     0.000536    Cartesian   -0.03
    555 x          7.841351      7.834981    -0.006370    Cartesian   -0.08
    555 y          3.920675      3.919982    -0.000693    Cartesian   -0.02
    555 z         15.682702     15.681470    -0.001232    Cartesian   -0.01
    556 x         -5.881013     -5.881022    -0.000009    Cartesian    0.00
    556 y         -1.960338     -1.959876     0.000462    Cartesian   -0.02
    556 z         13.722364     13.721223    -0.001141    Cartesian   -0.01
    557 x         -5.881013     -5.880643     0.000370    Cartesian   -0.01
    557 y          9.801689      9.799458    -0.002231    Cartesian   -0.02
    557 z          9.801689      9.799458    -0.002231    Cartesian   -0.02
    558 x         -7.841351     -7.839119     0.002232    Cartesian   -0.03
    558 y          3.920675      3.919255    -0.001421    Cartesian   -0.04
    558 z         11.762026     11.755260    -0.006767    Cartesian   -0.06
    559 x         15.682702     15.676279    -0.006423    Cartesian   -0.04
    559 y          0.000000      0.000000     0.000000    Cartesian    0.00
    559 z         11.762026     11.765620     0.003594    Cartesian    0.03
    560 x          1.960338      1.957743    -0.002595    Cartesian   -0.13
    560 y          9.801689      9.802096     0.000407    Cartesian    0.00
    560 z         13.722364     13.723237     0.000873    Cartesian    0.01
    561 x          0.000000     -0.005373    -0.005373    Cartesian    0.00
    561 y         11.762026     11.759200    -0.002827    Cartesian   -0.02
    561 z         11.762026     11.759200    -0.002827    Cartesian   -0.02
    562 x         19.603377     19.610213     0.006835    Cartesian    0.03
    562 y          3.920675      3.931378     0.010702    Cartesian    0.27
    562 z          3.920675      3.931378     0.010702    Cartesian    0.27
    563 x          5.881013      5.878882    -0.002131    Cartesian   -0.04
    563 y         13.722364     13.724575     0.002211    Cartesian    0.02
    563 z          9.801689      9.803399     0.001710    Cartesian    0.02
    564 x        -11.762026    -11.755711     0.006315    Cartesian   -0.05
    564 y          0.000000      0.000000     0.000000    Cartesian    0.00
    564 z          7.841351      7.835651    -0.005700    Cartesian   -0.07
    565 x          7.841351      7.834603    -0.006748    Cartesian   -0.09
    565 y         11.762026     11.763244     0.001218    Cartesian    0.01
    565 z         11.762026     11.763244     0.001218    Cartesian    0.01
    566 x         13.722364     13.721073    -0.001291    Cartesian   -0.01
    566 y         13.722364     13.724323     0.001958    Cartesian    0.01
    566 z         -1.960338     -1.961174    -0.000836    Cartesian    0.04
    567 x         13.722364     13.721341    -0.001023    Cartesian   -0.01
    567 y          9.801689      9.806289     0.004600    Cartesian    0.05
    567 z          9.801689      9.806289     0.004600    Cartesian    0.05
    568 x         17.643040     17.643667     0.000627    Cartesian    0.00
    568 y         -1.960338     -1.961206    -0.000868    Cartesian    0.04
    568 z          9.801689      9.805864     0.004175    Cartesian    0.04
    569 x         -3.920675     -3.922710    -0.002034    Cartesian    0.05
    569 y          0.000000      0.000000     0.000000    Cartesian    0.00
    569 z         15.682702     15.678694    -0.004008    Cartesian   -0.03
    570 x         15.682702     15.677666    -0.005036    Cartesian   -0.03
    570 y          3.920675      3.922100     0.001424    Cartesian    0.04
    570 z         11.762026     11.766386     0.004360    Cartesian    0.04
    571 x        -13.722364    -13.720499     0.001865    Cartesian   -0.01
    571 y         -1.960338     -1.959889     0.000449    Cartesian   -0.02
    571 z         -1.960338     -1.959889     0.000449    Cartesian   -0.02
    572 x          3.920675      3.915890    -0.004786    Cartesian   -0.12
    572 y          7.841351      7.841006    -0.000345    Cartesian   -0.00
    572 z         15.682702     15.681325    -0.001377    Cartesian   -0.01
    573 x         -9.801689     -9.800299     0.001389    Cartesian   -0.01
    573 y          9.801689      9.799681    -0.002007    Cartesian   -0.02
    573 z          5.881013      5.880192    -0.000822    Cartesian   -0.01
    574 x        -11.762026    -11.757490     0.004536    Cartesian   -0.04
    574 y          3.920675      3.919436    -0.001240    Cartesian   -0.03
    574 z          7.841351      7.837129    -0.004222    Cartesian   -0.05
    575 x         -5.881013     -5.881748    -0.000735    Cartesian    0.01
    575 y          5.881013      5.880892    -0.000121    Cartesian   -0.00
    575 z         13.722364     13.721740    -0.000624    Cartesian   -0.00
    576 x         11.762026     11.757026    -0.005001    Cartesian   -0.04
    576 y          0.000000      0.000000     0.000000    Cartesian    0.00
    576 z         15.682702     15.683041     0.000339    Cartesian    0.00
    577 x         -1.960338     -1.962414    -0.002076    Cartesian    0.11
    577 y          9.801689      9.801683    -0.000006    Cartesian   -0.00
    577 z         13.722364     13.722497     0.000133    Cartesian    0.00
    578 x         -3.920675     -3.923334    -0.002659    Cartesian    0.07
    578 y          3.920675      3.919795    -0.000881    Cartesian   -0.02
    578 z         15.682702     15.678518    -0.004183    Cartesian   -0.03
    579 x          1.960338      1.959000    -0.001338    Cartesian   -0.07
    579 y         -1.960338     -1.960624    -0.000287    Cartesian    0.01
    579 z         17.643040     17.643509     0.000469    Cartesian    0.00
    580 x          0.000000     -0.003855    -0.003855    Cartesian    0.00
    580 y          7.841351      7.840479    -0.000872    Cartesian   -0.01
    580 z         15.682702     15.679943    -0.002759    Cartesian   -0.02
    581 x         19.603377     19.601898    -0.001480    Cartesian   -0.01
    581 y          0.000000      0.000000     0.000000    Cartesian    0.00
    581 z          7.841351      7.848837     0.007486    Cartesian    0.10
    582 x          5.881013      5.880843    -0.000170    Cartesian   -0.00
    582 y         -1.960338     -1.960174     0.000164    Cartesian   -0.01
    582 z         17.643040     17.644208     0.001168    Cartesian    0.01
    583 x          9.801689      9.800008    -0.001681    Cartesian   -0.02
    583 y          9.801689      9.803700     0.002011    Cartesian    0.02
    583 z         13.722364     13.724707     0.002343    Cartesian    0.02
    584 x          7.841351      7.835841    -0.005510    Cartesian   -0.07
    584 y          7.841351      7.841392     0.000041    Cartesian    0.00
    584 z         15.682702     15.681914    -0.000788    Cartesian   -0.01
    585 x         13.722364     13.721861    -0.000503    Cartesian   -0.00
    585 y          5.881013      5.881837     0.000823    Cartesian    0.01
    585 z         13.722364     13.725022     0.002658    Cartesian    0.02
    586 x         -7.841351     -7.840687     0.000664    Cartesian   -0.01
    586 y          7.841351      7.837898    -0.003453    Cartesian   -0.04
    586 z         11.762026     11.756795    -0.005231    Cartesian   -0.04
    587 x         11.762026     11.757449    -0.004577    Cartesian   -0.04
    587 y          3.920675      3.920631    -0.000044    Cartesian   -0.00
    587 z         15.682702     15.683169     0.000467    Cartesian    0.00
    588 x         17.643040     17.644519     0.001479    Cartesian    0.01
    588 y          5.881013      5.883549     0.002535    Cartesian    0.04
    588 z          9.801689      9.806503     0.004815    Cartesian    0.05
    589 x         -3.920675     -3.922662    -0.001986    Cartesian    0.05
    589 y         11.762026     11.758645    -0.003381    Cartesian   -0.03
    589 z         11.762026     11.758645    -0.003381    Cartesian   -0.03
    590 x         21.563715     21.563087    -0.000628    Cartesian   -0.00
    590 y         -1.960338     -1.962001    -0.001663    Cartesian    0.08
    590 z         -1.960338     -1.962001    -0.001663    Cartesian    0.08
    591 x         19.603377     19.601699    -0.001679    Cartesian   -0.01
    591 y          3.920675      3.922824     0.002148    Cartesian    0.05
    591 z          7.841351      7.848585     0.007234    Cartesian    0.09
    592 x        -13.722364    -13.720794     0.001571    Cartesian   -0.01
    592 y          5.881013      5.880751    -0.000263    Cartesian   -0.00
    592 z         -1.960338     -1.959921     0.000417    Cartesian   -0.02
    593 x         11.762026     11.756925    -0.005102    Cartesian   -0.04
    593 y         11.762026     11.763592     0.001565    Cartesian    0.01
    593 z         11.762026     11.763592     0.001565    Cartesian    0.01
    594 x         -1.960338     -1.961590    -0.001252    Cartesian    0.06
    594 y         -1.960338     -1.960717    -0.000379    Cartesian    0.02
    594 z         17.643040     17.642645    -0.000395    Cartesian   -0.00
    595 x         15.682702     15.677982    -0.004720    Cartesian   -0.03
    595 y          7.841351      7.843201     0.001850    Cartesian    0.02
    595 z         11.762026     11.766290     0.004263    Cartesian    0.04
    596 x          1.960338      1.958962    -0.001376    Cartesian   -0.07
    596 y         17.643040     17.642895    -0.000145    Cartesian   -0.00
    596 z          5.881013      5.881590     0.000576    Cartesian    0.01
    597 x          5.881013      5.879868    -0.001145    Cartesian   -0.02
    597 y          5.881013      5.881115     0.000102    Cartesian    0.00
    597 z         17.643040     17.643424     0.000385    Cartesian    0.00
    598 x          9.801689      9.800912    -0.000776    Cartesian   -0.01
    598 y         -1.960338     -1.960261     0.000077    Cartesian   -0.00
    598 z         17.643040     17.643013    -0.000027    Cartesian   -0.00
    599 x        -11.762026    -11.758753     0.003273    Cartesian   -0.03
    599 y          7.841351      7.838261    -0.003090    Cartesian   -0.04
    599 z          7.841351      7.838261    -0.003090    Cartesian   -0.04
    600 x         -3.920675     -3.921919    -0.001243    Cartesian    0.03
    600 y          7.841351      7.839165    -0.002186    Cartesian   -0.03
    600 z         15.682702     15.678359    -0.004343    Cartesian   -0.03
    601 x         21.563715     21.564294     0.000578    Cartesian    0.00
    601 y          5.881013      5.884207     0.003194    Cartesian    0.05
    601 z         -1.960338     -1.960996    -0.000658    Cartesian    0.03
    602 x        -13.722364    -13.721553     0.000812    Cartesian   -0.01
    602 y          5.881013      5.880646    -0.000367    Cartesian   -0.01
    602 z          5.881013      5.880646    -0.000367    Cartesian   -0.01
    603 x        -15.682702    -15.677802     0.004900    Cartesian   -0.03
    603 y          0.000000      0.000000     0.000000    Cartesian    0.00
    603 z          0.000000      0.000000     0.000000    Cartesian    0.00
    604 x         -9.801689     -9.800812     0.000877    Cartesian   -0.01
    604 y         13.722364     13.720386    -0.001978    Cartesian   -0.01
    604 z         -1.960338     -1.960105     0.000233    Cartesian   -0.01
    605 x         -9.801689     -9.799338     0.002351    Cartesian   -0.02
    605 y          9.801689      9.799102    -0.002587    Cartesian   -0.03
    605 z          9.801689      9.799102    -0.002587    Cartesian   -0.03
    606 x        -11.762026    -11.758456     0.003570    Cartesian   -0.03
    606 y          0.000000      0.000000     0.000000    Cartesian    0.00
    606 z         11.762026     11.757509    -0.004517    Cartesian   -0.04
    607 x         -5.881013     -5.880214     0.000799    Cartesian   -0.01
    607 y          9.801689      9.799624    -0.002064    Cartesian   -0.02
    607 z         13.722364     13.719818    -0.002546    Cartesian   -0.02
    608 x         -7.841351     -7.840563     0.000788    Cartesian   -0.01
    608 y          0.000000      0.000000     0.000000    Cartesian    0.00
    608 z         15.682702     15.677601    -0.005101    Cartesian   -0.03
    609 x         11.762026     11.757263    -0.004763    Cartesian   -0.04
    609 y          7.841351      7.840532    -0.000819    Cartesian   -0.01
    609 z         15.682702     15.681486    -0.001216    Cartesian   -0.01
    610 x         -1.960338     -1.960512    -0.000174    Cartesian    0.01
    610 y          5.881013      5.880031    -0.000982    Cartesian   -0.02
    610 z         17.643040     17.640911    -0.002129    Cartesian   -0.01
    611 x          1.960338      1.958528    -0.001810    Cartesian   -0.09
    611 y         13.722364     13.721886    -0.000478    Cartesian   -0.00
    611 z         13.722364     13.721886    -0.000478    Cartesian   -0.00
    612 x         19.603377     19.601178    -0.002200    Cartesian   -0.01
    612 y          7.841351      7.846165     0.004814    Cartesian    0.06
    612 z          7.841351      7.846165     0.004814    Cartesian    0.06
    613 x          5.881013      5.879484    -0.001529    Cartesian   -0.03
    613 y         13.722364     13.722019    -0.000345    Cartesian   -0.00
    613 z         13.722364     13.722019    -0.000345    Cartesian   -0.00
    614 x        -15.682702    -15.676698     0.006004    Cartesian   -0.04
    614 y          0.000000      0.000000     0.000000    Cartesian    0.00
    614 z          3.920675      3.919154    -0.001522    Cartesian   -0.04
    615 x          3.920675      3.917395    -0.003280    Cartesian   -0.08
    615 y         11.762026     11.760000    -0.002027    Cartesian   -0.02
    615 z         15.682702     15.679319    -0.003383    Cartesian   -0.02
    616 x          3.920675      3.918176    -0.002499    Cartesian   -0.06
    616 y          0.000000      0.000000     0.000000    Cartesian    0.00
    616 z         19.603377     19.599243    -0.004134    Cartesian   -0.02
    617 x          9.801689      9.799554    -0.002134    Cartesian   -0.02
    617 y          5.881013      5.880241    -0.000772    Cartesian   -0.01
    617 z         17.643040     17.641607    -0.001432    Cartesian   -0.01
    618 x        -11.762026    -11.757464     0.004563    Cartesian   -0.04
    618 y          3.920675      3.919102    -0.001573    Cartesian   -0.04
    618 z         11.762026     11.756866    -0.005160    Cartesian   -0.04
    619 x         13.722364     13.719973    -0.002391    Cartesian   -0.02
    619 y          9.801689      9.801412    -0.000277    Cartesian   -0.00
    619 z         13.722364     13.722125    -0.000239    Cartesian   -0.00
    620 x         -7.841351     -7.839930     0.001421    Cartesian   -0.02
    620 y          3.920675      3.919039    -0.001637    Cartesian   -0.04
    620 z         15.682702     15.676590    -0.006112    Cartesian   -0.04
    621 x         17.643040     17.641365    -0.001675    Cartesian   -0.01
    621 y         -1.960338     -1.959963     0.000374    Cartesian   -0.02
    621 z         13.722364     13.721947    -0.000418    Cartesian   -0.00
    622 x         17.643040     17.641516    -0.001524    Cartesian   -0.01
    622 y          9.801689      9.802699     0.001010    Cartesian    0.01
    622 z          9.801689      9.802699     0.001010    Cartesian    0.01
    623 x         15.682702     15.677209    -0.005493    Cartesian   -0.04
    623 y          0.000000      0.000000     0.000000    Cartesian    0.00
    623 z         15.682702     15.680739    -0.001963    Cartesian   -0.01
    624 x         21.563715     21.563104    -0.000611    Cartesian   -0.00
    624 y          5.881013      5.882662     0.001648    Cartesian    0.03
    624 z          5.881013      5.882662     0.001648    Cartesian    0.03
    625 x          0.000000     -0.001679    -0.001679    Cartesian    0.00
    625 y         11.762026     11.758601    -0.003426    Cartesian   -0.03
    625 z         15.682702     15.678233    -0.004469    Cartesian   -0.03
    626 x          0.000000     -0.001495    -0.001495    Cartesian    0.00
    626 y          0.000000      0.000000     0.000000    Cartesian    0.00
    626 z         19.603377     19.596989    -0.006389    Cartesian   -0.03
    627 x         19.603377     19.598862    -0.004516    Cartesian   -0.02
    627 y          0.000000      0.000000     0.000000    Cartesian    0.00
    627 z         11.762026     11.763788     0.001761    Cartesian    0.01
    628 x        -13.722364    -13.719516     0.002849    Cartesian   -0.02
    628 y         -1.960338     -1.959604     0.000733    Cartesian   -0.04
    628 z          9.801689      9.799600    -0.002089    Cartesian   -0.02
    629 x        -15.682702    -15.675770     0.006932    Cartesian   -0.04
    629 y          3.920675      3.918771    -0.001905    Cartesian   -0.05
    629 z          3.920675      3.918771    -0.001905    Cartesian   -0.05
    630 x          3.920675      3.918594    -0.002081    Cartesian   -0.05
    630 y          3.920675      3.919528    -0.001147    Cartesian   -0.03
    630 z         19.603377     19.597737    -0.005640    Cartesian   -0.03
    631 x         23.524053     23.519576    -0.004477    Cartesian   -0.02
    631 y          0.000000      0.000000     0.000000    Cartesian    0.00
    631 z          0.000000      0.000000     0.000000    Cartesian    0.00
--------------------------------------------------------------------------------


  Time to end of optimisation  =      138.8946 seconds


  Peak dynamic memory used =    1752.66 MB 


  Timing analysis for GULP :

--------------------------------------------------------------------------------
  Task / Subroutine                                          Time (Seconds)
--------------------------------------------------------------------------------
  Calculation of reciprocal space energy and derivatives          0.0002
  Calculation of reciprocal space energy using symmetry           0.0003
  Calculation of real space energy and derivatives                0.0017
  Calculation of real space energy using symmetry                 0.0035
  Calculation for region 1 energy and derivatives (2-b)          72.9572
  Calculation for region 2a energy                               19.5134
  Calculation for region 2b energy                                0.0039
  Calculation and manipulation of Hessian matrix                 42.0487
  Calculation of matrix inversion                                 3.4020
  Symmetry generation of equivalent positions                     0.0018
--------------------------------------------------------------------------------
  Total CPU time                                                138.8946
--------------------------------------------------------------------------------


  Dump file written as Li3OCl.grs


  Job Finished at 18:25.23 20th October    2020                               

